# vtk DataFile Version 2.0
A PolyData cube
ASCII

DATASET POLYDATA
POINTS 8 float

0.0 0.0 0.0
1.0 0.0 0.0
0.0 1.0 0.0
1.0 1.0 0.0
0.0 0.0 1.0
1.0 0.0 1.0
0.0 1.0 1.0
1.0 1.0 1.0

POLYGONS 6 30

4 0 2 3 1
4 4 5 7 6
4 0 1 5 4
4 3 2 6 7
4 0 4 6 2
4 1 3 7 5

POINT_DATA 8

SCALARS cube float
LOOKUP_TABLE default

1
2
3
4
5
6
7
8


