# vtk DataFile Version 2.0
A Structured Points cube
ASCII


DATASET STRUCTURED_POINTS
DIMENSIONS 2 2 2
ORIGIN 0 0 0
SPACING 1 1 1

POINT_DATA 8

SCALARS linear_ramp float
LOOKUP_TABLE default
1
2
3
4
5
6
7
8




