# vtk DataFile Version 3.0
Dipole Field
ASCII
DATASET STRUCTURED_POINTS
DIMENSIONS 21 21 21
ORIGIN -10.000000 -10.000000 -10.000000
SPACING 1.0 1.0 1.0
POINT_DATA 9261
VECTORS MagneticField float
1.924501e-04 1.924501e-04 -3.646507e-20
2.039849e-04 2.266499e-04 1.435449e-05
2.119344e-04 2.649180e-04 3.179016e-05
2.146451e-04 3.066358e-04 5.212809e-05
2.103742e-04 3.506237e-04 7.479972e-05
1.975309e-04 3.950617e-04 9.876543e-05
1.750036e-04 4.375089e-04 1.225025e-04
1.425203e-04 4.750677e-04 1.441039e-04
1.009429e-04 5.047146e-04 1.615087e-04
5.237585e-05 5.237585e-04 1.728403e-04
-0.000000e+00 5.303301e-04 1.767767e-04
-5.237585e-05 5.237585e-04 1.728403e-04
-1.009429e-04 5.047146e-04 1.615087e-04
-1.425203e-04 4.750677e-04 1.441039e-04
-1.750036e-04 4.375089e-04 1.225025e-04
-1.975309e-04 3.950617e-04 9.876543e-05
-2.103742e-04 3.506237e-04 7.479972e-05
-2.146451e-04 3.066358e-04 5.212809e-05
-2.119344e-04 2.649180e-04 3.179016e-05
-2.039849e-04 2.266499e-04 1.435449e-05
-1.924501e-04 1.924501e-04 -3.646507e-20
2.266499e-04 2.039849e-04 1.435449e-05
2.430024e-04 2.430024e-04 3.420034e-05
2.554442e-04 2.873747e-04 5.853929e-05
2.617578e-04 3.365458e-04 8.725261e-05
2.594915e-04 3.892373e-04 1.196544e-04
2.462766e-04 4.432979e-04 1.543334e-04
2.203006e-04 4.956764e-04 1.890913e-04
1.808667e-04 5.426000e-04 2.210592e-04
1.288908e-04 5.800086e-04 2.470407e-04
6.713404e-05 6.042064e-04 2.640606e-04
-0.000000e+00 6.125864e-04 2.699918e-04
-6.713404e-05 6.042064e-04 2.640606e-04
-1.288908e-04 5.800086e-04 2.470407e-04
-1.808667e-04 5.426000e-04 2.210592e-04
-2.203006e-04 4.956764e-04 1.890913e-04
-2.462766e-04 4.432979e-04 1.543334e-04
-2.594915e-04 3.892373e-04 1.196544e-04
-2.617578e-04 3.365458e-04 8.725261e-05
-2.554442e-04 2.873747e-04 5.853929e-05
-2.430024e-04 2.430024e-04 3.420034e-05
-2.266499e-04 2.039849e-04 1.435449e-05
2.649180e-04 2.119344e-04 3.179016e-05
2.873747e-04 2.554442e-04 5.853929e-05
3.057554e-04 3.057554e-04 9.172662e-05
3.171541e-04 3.624618e-04 1.313924e-04
3.181981e-04 4.242641e-04 1.767767e-04
3.054476e-04 4.887162e-04 2.260312e-04
2.760578e-04 5.521155e-04 2.760578e-04
2.286269e-04 6.096716e-04 3.226179e-04
1.640129e-04 6.560517e-04 3.608284e-04
8.578501e-05 6.862801e-04 3.860325e-04
-0.000000e+00 6.967895e-04 3.948474e-04
-8.578501e-05 6.862801e-04 3.860325e-04
-1.640129e-04 6.560517e-04 3.608284e-04
-2.286269e-04 6.096716e-04 3.226179e-04
-2.760578e-04 5.521155e-04 2.760578e-04
-3.054476e-04 4.887162e-04 2.260312e-04
-3.181981e-04 4.242641e-04 1.767767e-04
-3.171541e-04 3.624618e-04 1.313924e-04
-3.057554e-04 3.057554e-04 9.172662e-05
-2.873747e-04 2.554442e-04 5.853929e-05
-2.649180e-04 2.119344e-04 3.179016e-05
3.066358e-04 2.146451e-04 5.212809e-05
3.365458e-04 2.617578e-04 8.725261e-05
3.624618e-04 3.171541e-04 1.313924e-04
3.806767e-04 3.806767e-04 1.849001e-04
3.866724e-04 4.511178e-04 2.470407e-04
3.755936e-04 5.258310e-04 3.154986e-04
3.431400e-04 6.004951e-04 3.860325e-04
2.868136e-04 6.692318e-04 4.525282e-04
2.072157e-04 7.252550e-04 5.076785e-04
1.088662e-04 7.620635e-04 5.443311e-04
-0.000000e+00 7.749142e-04 5.572002e-04
-1.088662e-04 7.620635e-04 5.443311e-04
-2.072157e-04 7.252550e-04 5.076785e-04
-2.868136e-04 6.692318e-04 4.525282e-04
-3.431400e-04 6.004951e-04 3.860325e-04
-3.755936e-04 5.258310e-04 3.154986e-04
-3.866724e-04 4.511178e-04 2.470407e-04
-3.806767e-04 3.806767e-04 1.849001e-04
-3.624618e-04 3.171541e-04 1.313924e-04
-3.365458e-04 2.617578e-04 8.725261e-05
-3.066358e-04 2.146451e-04 5.212809e-05
3.506237e-04 2.103742e-04 7.479972e-05
3.892373e-04 2.594915e-04 1.196544e-04
4.242641e-04 3.181981e-04 1.767767e-04
4.511178e-04 3.866724e-04 2.470407e-04
4.639289e-04 4.639289e-04 3.299050e-04
4.560648e-04 5.472778e-04 4.226201e-04
4.212814e-04 6.319221e-04 5.195804e-04
3.554860e-04 7.109720e-04 6.122259e-04
2.587207e-04 7.761621e-04 6.899218e-04
1.365588e-04 8.193531e-04 7.419697e-04
-0.000000e+00 8.344979e-04 7.603203e-04
-1.365588e-04 8.193531e-04 7.419697e-04
-2.587207e-04 7.761621e-04 6.899218e-04
-3.554860e-04 7.109720e-04 6.122259e-04
-4.212814e-04 6.319221e-04 5.195804e-04
-4.560648e-04 5.472778e-04 4.226201e-04
-4.639289e-04 4.639289e-04 3.299050e-04
-4.511178e-04 3.866724e-04 2.470407e-04
-4.242641e-04 3.181981e-04 1.767767e-04
-3.892373e-04 2.594915e-04 1.196544e-04
-3.506237e-04 2.103742e-04 7.479972e-05
3.950617e-04 1.975309e-04 9.876543e-05
4.432979e-04 2.462766e-04 1.543334e-04
4.887162e-04 3.054476e-04 2.260312e-04
5.258310e-04 3.755936e-04 3.154986e-04
5.472778e-04 4.560648e-04 4.226201e-04
5.443311e-04 5.443311e-04 5.443311e-04
5.083156e-04 6.353945e-04 6.735182e-04
4.329926e-04 7.216544e-04 7.986309e-04
3.174512e-04 7.936280e-04 9.047359e-04
1.683429e-04 8.417147e-04 9.763890e-04
-0.000000e+00 8.586501e-04 1.001758e-03
-1.683429e-04 8.417147e-04 9.763890e-04
-3.174512e-04 7.936280e-04 9.047359e-04
-4.329926e-04 7.216544e-04 7.986309e-04
-5.083156e-04 6.353945e-04 6.735182e-04
-5.443311e-04 5.443311e-04 5.443311e-04
-5.472778e-04 4.560648e-04 4.226201e-04
-5.258310e-04 3.755936e-04 3.154986e-04
-4.887162e-04 3.054476e-04 2.260312e-04
-4.432979e-04 2.462766e-04 1.543334e-04
-3.950617e-04 1.975309e-04 9.876543e-05
4.375089e-04 1.750036e-04 1.225025e-04
4.956764e-04 2.203006e-04 1.890913e-04
5.521155e-04 2.760578e-04 2.760578e-04
6.004951e-04 3.431400e-04 3.860325e-04
6.319221e-04 4.212814e-04 5.195804e-04
6.353945e-04 5.083156e-04 6.735182e-04
5.994410e-04 5.994410e-04 8.392173e-04
5.151901e-04 6.869201e-04 1.001758e-03
3.803629e-04 7.607258e-04 1.141089e-03
2.026080e-04 8.104320e-04 1.235909e-03
-0.000000e+00 8.280113e-04 1.269617e-03
-2.026080e-04 8.104320e-04 1.235909e-03
-3.803629e-04 7.607258e-04 1.141089e-03
-5.151901e-04 6.869201e-04 1.001758e-03
-5.994410e-04 5.994410e-04 8.392173e-04
-6.353945e-04 5.083156e-04 6.735182e-04
-6.319221e-04 4.212814e-04 5.195804e-04
-6.004951e-04 3.431400e-04 3.860325e-04
-5.521155e-04 2.760578e-04 2.760578e-04
-4.956764e-04 2.203006e-04 1.890913e-04
-4.375089e-04 1.750036e-04 1.225025e-04
4.750677e-04 1.425203e-04 1.441039e-04
5.426000e-04 1.808667e-04 2.210592e-04
6.096716e-04 2.286269e-04 3.226179e-04
6.692318e-04 2.868136e-04 4.525282e-04
7.109720e-04 3.554860e-04 6.122259e-04
7.216544e-04 4.329926e-04 7.986309e-04
6.869201e-04 5.151901e-04 1.001758e-03
5.950281e-04 5.950281e-04 1.203279e-03
4.420335e-04 6.630502e-04 1.377671e-03
2.363957e-04 7.091870e-04 1.497173e-03
-0.000000e+00 7.255649e-04 1.539810e-03
-2.363957e-04 7.091870e-04 1.497173e-03
-4.420335e-04 6.630502e-04 1.377671e-03
-5.950281e-04 5.950281e-04 1.203279e-03
-6.869201e-04 5.151901e-04 1.001758e-03
-7.216544e-04 4.329926e-04 7.986309e-04
-7.109720e-04 3.554860e-04 6.122259e-04
-6.692318e-04 2.868136e-04 4.525282e-04
-6.096716e-04 2.286269e-04 3.226179e-04
-5.426000e-04 1.808667e-04 2.210592e-04
-4.750677e-04 1.425203e-04 1.441039e-04
5.047146e-04 1.009429e-04 1.615087e-04
5.800086e-04 1.288908e-04 2.470407e-04
6.560517e-04 1.640129e-04 3.608284e-04
7.252550e-04 2.072157e-04 5.076785e-04
7.761621e-04 2.587207e-04 6.899218e-04
7.936280e-04 3.174512e-04 9.047359e-04
7.607258e-04 3.803629e-04 1.141089e-03
6.630502e-04 4.420335e-04 1.377671e-03
4.949848e-04 4.949848e-04 1.583951e-03
2.655510e-04 5.311021e-04 1.726082e-03
-0.000000e+00 5.439612e-04 1.776940e-03
-2.655510e-04 5.311021e-04 1.726082e-03
-4.949848e-04 4.949848e-04 1.583951e-03
-6.630502e-04 4.420335e-04 1.377671e-03
-7.607258e-04 3.803629e-04 1.141089e-03
-7.936280e-04 3.174512e-04 9.047359e-04
-7.761621e-04 2.587207e-04 6.899218e-04
-7.252550e-04 2.072157e-04 5.076785e-04
-6.560517e-04 1.640129e-04 3.608284e-04
-5.800086e-04 1.288908e-04 2.470407e-04
-5.047146e-04 1.009429e-04 1.615087e-04
5.237585e-04 5.237585e-05 1.728403e-04
6.042064e-04 6.713404e-05 2.640606e-04
6.862801e-04 8.578501e-05 3.860325e-04
7.620635e-04 1.088662e-04 5.443311e-04
8.193531e-04 1.365588e-04 7.419697e-04
8.417147e-04 1.683429e-04 9.763890e-04
8.104320e-04 2.026080e-04 1.235909e-03
7.091870e-04 2.363957e-04 1.497173e-03
5.311021e-04 2.655510e-04 1.726082e-03
2.855097e-04 2.855097e-04 1.884364e-03
-0.000000e+00 2.926293e-04 1.941108e-03
-2.855097e-04 2.855097e-04 1.884364e-03
-5.311021e-04 2.655510e-04 1.726082e-03
-7.091870e-04 2.363957e-04 1.497173e-03
-8.104320e-04 2.026080e-04 1.235909e-03
-8.417147e-04 1.683429e-04 9.763890e-04
-8.193531e-04 1.365588e-04 7.419697e-04
-7.620635e-04 1.088662e-04 5.443311e-04
-6.862801e-04 8.578501e-05 3.860325e-04
-6.042064e-04 6.713404e-05 2.640606e-04
-5.237585e-04 5.237585e-05 1.728403e-04
5.303301e-04 -0.000000e+00 1.767767e-04
6.125864e-04 -0.000000e+00 2.699918e-04
6.967895e-04 -0.000000e+00 3.948474e-04
7.749142e-04 -0.000000e+00 5.572002e-04
8.344979e-04 -0.000000e+00 7.603203e-04
8.586501e-04 -0.000000e+00 1.001758e-03
8.280113e-04 -0.000000e+00 1.269617e-03
7.255649e-04 -0.000000e+00 1.539810e-03
5.439612e-04 -0.000000e+00 1.776940e-03
2.926293e-04 -0.000000e+00 1.941108e-03
-0.000000e+00 -0.000000e+00 2.000000e-03
-2.926293e-04 -0.000000e+00 1.941108e-03
-5.439612e-04 -0.000000e+00 1.776940e-03
-7.255649e-04 -0.000000e+00 1.539810e-03
-8.280113e-04 -0.000000e+00 1.269617e-03
-8.586501e-04 -0.000000e+00 1.001758e-03
-8.344979e-04 -0.000000e+00 7.603203e-04
-7.749142e-04 -0.000000e+00 5.572002e-04
-6.967895e-04 -0.000000e+00 3.948474e-04
-6.125864e-04 -0.000000e+00 2.699918e-04
-5.303301e-04 -0.000000e+00 1.767767e-04
5.237585e-04 -5.237585e-05 1.728403e-04
6.042064e-04 -6.713404e-05 2.640606e-04
6.862801e-04 -8.578501e-05 3.860325e-04
7.620635e-04 -1.088662e-04 5.443311e-04
8.193531e-04 -1.365588e-04 7.419697e-04
8.417147e-04 -1.683429e-04 9.763890e-04
8.104320e-04 -2.026080e-04 1.235909e-03
7.091870e-04 -2.363957e-04 1.497173e-03
5.311021e-04 -2.655510e-04 1.726082e-03
2.855097e-04 -2.855097e-04 1.884364e-03
-0.000000e+00 -2.926293e-04 1.941108e-03
-2.855097e-04 -2.855097e-04 1.884364e-03
-5.311021e-04 -2.655510e-04 1.726082e-03
-7.091870e-04 -2.363957e-04 1.497173e-03
-8.104320e-04 -2.026080e-04 1.235909e-03
-8.417147e-04 -1.683429e-04 9.763890e-04
-8.193531e-04 -1.365588e-04 7.419697e-04
-7.620635e-04 -1.088662e-04 5.443311e-04
-6.862801e-04 -8.578501e-05 3.860325e-04
-6.042064e-04 -6.713404e-05 2.640606e-04
-5.237585e-04 -5.237585e-05 1.728403e-04
5.047146e-04 -1.009429e-04 1.615087e-04
5.800086e-04 -1.288908e-04 2.470407e-04
6.560517e-04 -1.640129e-04 3.608284e-04
7.252550e-04 -2.072157e-04 5.076785e-04
7.761621e-04 -2.587207e-04 6.899218e-04
7.936280e-04 -3.174512e-04 9.047359e-04
7.607258e-04 -3.803629e-04 1.141089e-03
6.630502e-04 -4.420335e-04 1.377671e-03
4.949848e-04 -4.949848e-04 1.583951e-03
2.655510e-04 -5.311021e-04 1.726082e-03
-0.000000e+00 -5.439612e-04 1.776940e-03
-2.655510e-04 -5.311021e-04 1.726082e-03
-4.949848e-04 -4.949848e-04 1.583951e-03
-6.630502e-04 -4.420335e-04 1.377671e-03
-7.607258e-04 -3.803629e-04 1.141089e-03
-7.936280e-04 -3.174512e-04 9.047359e-04
-7.761621e-04 -2.587207e-04 6.899218e-04
-7.252550e-04 -2.072157e-04 5.076785e-04
-6.560517e-04 -1.640129e-04 3.608284e-04
-5.800086e-04 -1.288908e-04 2.470407e-04
-5.047146e-04 -1.009429e-04 1.615087e-04
4.750677e-04 -1.425203e-04 1.441039e-04
5.426000e-04 -1.808667e-04 2.210592e-04
6.096716e-04 -2.286269e-04 3.226179e-04
6.692318e-04 -2.868136e-04 4.525282e-04
7.109720e-04 -3.554860e-04 6.122259e-04
7.216544e-04 -4.329926e-04 7.986309e-04
6.869201e-04 -5.151901e-04 1.001758e-03
5.950281e-04 -5.950281e-04 1.203279e-03
4.420335e-04 -6.630502e-04 1.377671e-03
2.363957e-04 -7.091870e-04 1.497173e-03
-0.000000e+00 -7.255649e-04 1.539810e-03
-2.363957e-04 -7.091870e-04 1.497173e-03
-4.420335e-04 -6.630502e-04 1.377671e-03
-5.950281e-04 -5.950281e-04 1.203279e-03
-6.869201e-04 -5.151901e-04 1.001758e-03
-7.216544e-04 -4.329926e-04 7.986309e-04
-7.109720e-04 -3.554860e-04 6.122259e-04
-6.692318e-04 -2.868136e-04 4.525282e-04
-6.096716e-04 -2.286269e-04 3.226179e-04
-5.426000e-04 -1.808667e-04 2.210592e-04
-4.750677e-04 -1.425203e-04 1.441039e-04
4.375089e-04 -1.750036e-04 1.225025e-04
4.956764e-04 -2.203006e-04 1.890913e-04
5.521155e-04 -2.760578e-04 2.760578e-04
6.004951e-04 -3.431400e-04 3.860325e-04
6.319221e-04 -4.212814e-04 5.195804e-04
6.353945e-04 -5.083156e-04 6.735182e-04
5.994410e-04 -5.994410e-04 8.392173e-04
5.151901e-04 -6.869201e-04 1.001758e-03
3.803629e-04 -7.607258e-04 1.141089e-03
2.026080e-04 -8.104320e-04 1.235909e-03
-0.000000e+00 -8.280113e-04 1.269617e-03
-2.026080e-04 -8.104320e-04 1.235909e-03
-3.803629e-04 -7.607258e-04 1.141089e-03
-5.151901e-04 -6.869201e-04 1.001758e-03
-5.994410e-04 -5.994410e-04 8.392173e-04
-6.353945e-04 -5.083156e-04 6.735182e-04
-6.319221e-04 -4.212814e-04 5.195804e-04
-6.004951e-04 -3.431400e-04 3.860325e-04
-5.521155e-04 -2.760578e-04 2.760578e-04
-4.956764e-04 -2.203006e-04 1.890913e-04
-4.375089e-04 -1.750036e-04 1.225025e-04
3.950617e-04 -1.975309e-04 9.876543e-05
4.432979e-04 -2.462766e-04 1.543334e-04
4.887162e-04 -3.054476e-04 2.260312e-04
5.258310e-04 -3.755936e-04 3.154986e-04
5.472778e-04 -4.560648e-04 4.226201e-04
5.443311e-04 -5.443311e-04 5.443311e-04
5.083156e-04 -6.353945e-04 6.735182e-04
4.329926e-04 -7.216544e-04 7.986309e-04
3.174512e-04 -7.936280e-04 9.047359e-04
1.683429e-04 -8.417147e-04 9.763890e-04
-0.000000e+00 -8.586501e-04 1.001758e-03
-1.683429e-04 -8.417147e-04 9.763890e-04
-3.174512e-04 -7.936280e-04 9.047359e-04
-4.329926e-04 -7.216544e-04 7.986309e-04
-5.083156e-04 -6.353945e-04 6.735182e-04
-5.443311e-04 -5.443311e-04 5.443311e-04
-5.472778e-04 -4.560648e-04 4.226201e-04
-5.258310e-04 -3.755936e-04 3.154986e-04
-4.887162e-04 -3.054476e-04 2.260312e-04
-4.432979e-04 -2.462766e-04 1.543334e-04
-3.950617e-04 -1.975309e-04 9.876543e-05
3.506237e-04 -2.103742e-04 7.479972e-05
3.892373e-04 -2.594915e-04 1.196544e-04
4.242641e-04 -3.181981e-04 1.767767e-04
4.511178e-04 -3.866724e-04 2.470407e-04
4.639289e-04 -4.639289e-04 3.299050e-04
4.560648e-04 -5.472778e-04 4.226201e-04
4.212814e-04 -6.319221e-04 5.195804e-04
3.554860e-04 -7.109720e-04 6.122259e-04
2.587207e-04 -7.761621e-04 6.899218e-04
1.365588e-04 -8.193531e-04 7.419697e-04
-0.000000e+00 -8.344979e-04 7.603203e-04
-1.365588e-04 -8.193531e-04 7.419697e-04
-2.587207e-04 -7.761621e-04 6.899218e-04
-3.554860e-04 -7.109720e-04 6.122259e-04
-4.212814e-04 -6.319221e-04 5.195804e-04
-4.560648e-04 -5.472778e-04 4.226201e-04
-4.639289e-04 -4.639289e-04 3.299050e-04
-4.511178e-04 -3.866724e-04 2.470407e-04
-4.242641e-04 -3.181981e-04 1.767767e-04
-3.892373e-04 -2.594915e-04 1.196544e-04
-3.506237e-04 -2.103742e-04 7.479972e-05
3.066358e-04 -2.146451e-04 5.212809e-05
3.365458e-04 -2.617578e-04 8.725261e-05
3.624618e-04 -3.171541e-04 1.313924e-04
3.806767e-04 -3.806767e-04 1.849001e-04
3.866724e-04 -4.511178e-04 2.470407e-04
3.755936e-04 -5.258310e-04 3.154986e-04
3.431400e-04 -6.004951e-04 3.860325e-04
2.868136e-04 -6.692318e-04 4.525282e-04
2.072157e-04 -7.252550e-04 5.076785e-04
1.088662e-04 -7.620635e-04 5.443311e-04
-0.000000e+00 -7.749142e-04 5.572002e-04
-1.088662e-04 -7.620635e-04 5.443311e-04
-2.072157e-04 -7.252550e-04 5.076785e-04
-2.868136e-04 -6.692318e-04 4.525282e-04
-3.431400e-04 -6.004951e-04 3.860325e-04
-3.755936e-04 -5.258310e-04 3.154986e-04
-3.866724e-04 -4.511178e-04 2.470407e-04
-3.806767e-04 -3.806767e-04 1.849001e-04
-3.624618e-04 -3.171541e-04 1.313924e-04
-3.365458e-04 -2.617578e-04 8.725261e-05
-3.066358e-04 -2.146451e-04 5.212809e-05
2.649180e-04 -2.119344e-04 3.179016e-05
2.873747e-04 -2.554442e-04 5.853929e-05
3.057554e-04 -3.057554e-04 9.172662e-05
3.171541e-04 -3.624618e-04 1.313924e-04
3.181981e-04 -4.242641e-04 1.767767e-04
3.054476e-04 -4.887162e-04 2.260312e-04
2.760578e-04 -5.521155e-04 2.760578e-04
2.286269e-04 -6.096716e-04 3.226179e-04
1.640129e-04 -6.560517e-04 3.608284e-04
8.578501e-05 -6.862801e-04 3.860325e-04
-0.000000e+00 -6.967895e-04 3.948474e-04
-8.578501e-05 -6.862801e-04 3.860325e-04
-1.640129e-04 -6.560517e-04 3.608284e-04
-2.286269e-04 -6.096716e-04 3.226179e-04
-2.760578e-04 -5.521155e-04 2.760578e-04
-3.054476e-04 -4.887162e-04 2.260312e-04
-3.181981e-04 -4.242641e-04 1.767767e-04
-3.171541e-04 -3.624618e-04 1.313924e-04
-3.057554e-04 -3.057554e-04 9.172662e-05
-2.873747e-04 -2.554442e-04 5.853929e-05
-2.649180e-04 -2.119344e-04 3.179016e-05
2.266499e-04 -2.039849e-04 1.435449e-05
2.430024e-04 -2.430024e-04 3.420034e-05
2.554442e-04 -2.873747e-04 5.853929e-05
2.617578e-04 -3.365458e-04 8.725261e-05
2.594915e-04 -3.892373e-04 1.196544e-04
2.462766e-04 -4.432979e-04 1.543334e-04
2.203006e-04 -4.956764e-04 1.890913e-04
1.808667e-04 -5.426000e-04 2.210592e-04
1.288908e-04 -5.800086e-04 2.470407e-04
6.713404e-05 -6.042064e-04 2.640606e-04
-0.000000e+00 -6.125864e-04 2.699918e-04
-6.713404e-05 -6.042064e-04 2.640606e-04
-1.288908e-04 -5.800086e-04 2.470407e-04
-1.808667e-04 -5.426000e-04 2.210592e-04
-2.203006e-04 -4.956764e-04 1.890913e-04
-2.462766e-04 -4.432979e-04 1.543334e-04
-2.594915e-04 -3.892373e-04 1.196544e-04
-2.617578e-04 -3.365458e-04 8.725261e-05
-2.554442e-04 -2.873747e-04 5.853929e-05
-2.430024e-04 -2.430024e-04 3.420034e-05
-2.266499e-04 -2.039849e-04 1.435449e-05
1.924501e-04 -1.924501e-04 -3.646507e-20
2.039849e-04 -2.266499e-04 1.435449e-05
2.119344e-04 -2.649180e-04 3.179016e-05
2.146451e-04 -3.066358e-04 5.212809e-05
2.103742e-04 -3.506237e-04 7.479972e-05
1.975309e-04 -3.950617e-04 9.876543e-05
1.750036e-04 -4.375089e-04 1.225025e-04
1.425203e-04 -4.750677e-04 1.441039e-04
1.009429e-04 -5.047146e-04 1.615087e-04
5.237585e-05 -5.237585e-04 1.728403e-04
-0.000000e+00 -5.303301e-04 1.767767e-04
-5.237585e-05 -5.237585e-04 1.728403e-04
-1.009429e-04 -5.047146e-04 1.615087e-04
-1.425203e-04 -4.750677e-04 1.441039e-04
-1.750036e-04 -4.375089e-04 1.225025e-04
-1.975309e-04 -3.950617e-04 9.876543e-05
-2.103742e-04 -3.506237e-04 7.479972e-05
-2.146451e-04 -3.066358e-04 5.212809e-05
-2.119344e-04 -2.649180e-04 3.179016e-05
-2.039849e-04 -2.266499e-04 1.435449e-05
-1.924501e-04 -1.924501e-04 -3.646507e-20
2.039849e-04 2.039849e-04 -2.870898e-05
2.187021e-04 2.430024e-04 -1.710017e-05
2.298998e-04 2.873747e-04 -2.128702e-06
2.355821e-04 3.365458e-04 1.620406e-05
2.335424e-04 3.892373e-04 3.748211e-05
2.216490e-04 4.432979e-04 6.074824e-05
1.982705e-04 4.956764e-04 8.444856e-05
1.627800e-04 5.426000e-04 1.065104e-04
1.160017e-04 5.800086e-04 1.245944e-04
6.042064e-05 6.042064e-04 1.365059e-04
-0.000000e+00 6.125864e-04 1.406680e-04
-6.042064e-05 6.042064e-04 1.365059e-04
-1.160017e-04 5.800086e-04 1.245944e-04
-1.627800e-04 5.426000e-04 1.065104e-04
-1.982705e-04 4.956764e-04 8.444856e-05
-2.216490e-04 4.432979e-04 6.074824e-05
-2.335424e-04 3.892373e-04 3.748211e-05
-2.355821e-04 3.365458e-04 1.620406e-05
-2.298998e-04 2.873747e-04 -2.128702e-06
-2.187021e-04 2.430024e-04 -1.710017e-05
-2.039849e-04 2.039849e-04 -2.870898e-05
2.430024e-04 2.187021e-04 -1.710017e-05
2.639919e-04 2.639919e-04 0.000000e+00
2.813084e-04 3.164719e-04 2.214001e-05
2.922508e-04 3.757510e-04 4.948161e-05
2.936649e-04 4.404973e-04 8.157358e-05
2.823123e-04 5.081621e-04 1.171073e-04
2.554899e-04 5.748523e-04 1.537671e-04
2.118335e-04 6.355006e-04 1.882965e-04
1.520980e-04 6.844411e-04 2.168805e-04
7.959664e-05 7.163698e-04 2.358419e-04
-0.000000e+00 7.274761e-04 2.424920e-04
-7.959664e-05 7.163698e-04 2.358419e-04
-1.520980e-04 6.844411e-04 2.168805e-04
-2.118335e-04 6.355006e-04 1.882965e-04
-2.554899e-04 5.748523e-04 1.537671e-04
-2.823123e-04 5.081621e-04 1.171073e-04
-2.936649e-04 4.404973e-04 8.157358e-05
-2.922508e-04 3.757510e-04 4.948161e-05
-2.813084e-04 3.164719e-04 2.214001e-05
-2.639919e-04 2.639919e-04 0.000000e+00
-2.430024e-04 2.187021e-04 -1.710017e-05
2.873747e-04 2.298998e-04 -2.128702e-06
3.164719e-04 2.813084e-04 2.214001e-05
3.420488e-04 3.420488e-04 5.384101e-05
3.605433e-04 4.120495e-04 9.347420e-05
3.675518e-04 4.900691e-04 1.406680e-04
3.582708e-04 5.732333e-04 1.937316e-04
3.283667e-04 6.567333e-04 2.493154e-04
2.752220e-04 7.339255e-04 3.024045e-04
1.992637e-04 7.970546e-04 3.468664e-04
1.048290e-04 8.386324e-04 3.766080e-04
-0.000000e+00 8.531664e-04 3.870848e-04
-1.048290e-04 8.386324e-04 3.766080e-04
-1.992637e-04 7.970546e-04 3.468664e-04
-2.752220e-04 7.339255e-04 3.024045e-04
-3.283667e-04 6.567333e-04 2.493154e-04
-3.582708e-04 5.732333e-04 1.937316e-04
-3.675518e-04 4.900691e-04 1.406680e-04
-3.605433e-04 4.120495e-04 9.347420e-05
-3.420488e-04 3.420488e-04 5.384101e-05
-3.164719e-04 2.813084e-04 2.214001e-05
-2.873747e-04 2.298998e-04 -2.128702e-06
3.365458e-04 2.355821e-04 1.620406e-05
3.757510e-04 2.922508e-04 4.948161e-05
4.120495e-04 3.605433e-04 9.347420e-05
4.408890e-04 4.408890e-04 1.492957e-04
4.562940e-04 5.323430e-04 2.168805e-04
4.513407e-04 6.318770e-04 2.942073e-04
4.193162e-04 7.338033e-04 3.766080e-04
3.555888e-04 8.297071e-04 4.565584e-04
2.597956e-04 9.092845e-04 5.244022e-04
1.374629e-04 9.622404e-04 5.702165e-04
-0.000000e+00 9.808519e-04 5.864352e-04
-1.374629e-04 9.622404e-04 5.702165e-04
-2.597956e-04 9.092845e-04 5.244022e-04
-3.555888e-04 8.297071e-04 4.565584e-04
-4.193162e-04 7.338033e-04 3.766080e-04
-4.513407e-04 6.318770e-04 2.942073e-04
-4.562940e-04 5.323430e-04 2.168805e-04
-4.408890e-04 4.408890e-04 1.492957e-04
-4.120495e-04 3.605433e-04 9.347420e-05
-3.757510e-04 2.922508e-04 4.948161e-05
-3.365458e-04 2.355821e-04 1.620406e-05
3.892373e-04 2.335424e-04 3.748211e-05
4.404973e-04 2.936649e-04 8.157358e-05
4.900691e-04 3.675518e-04 1.406680e-04
5.323430e-04 4.562940e-04 2.168805e-04
5.594824e-04 5.594824e-04 3.108236e-04
5.618403e-04 6.742084e-04 4.203398e-04
5.294131e-04 7.941196e-04 5.392170e-04
4.545259e-04 9.090518e-04 6.565374e-04
3.352975e-04 1.005893e-03 7.575240e-04
1.785084e-04 1.071051e-03 8.264279e-04
-0.000000e+00 1.094083e-03 8.509536e-04
-1.785084e-04 1.071051e-03 8.264279e-04
-3.352975e-04 1.005893e-03 7.575240e-04
-4.545259e-04 9.090518e-04 6.565374e-04
-5.294131e-04 7.941196e-04 5.392170e-04
-5.618403e-04 6.742084e-04 4.203398e-04
-5.594824e-04 5.594824e-04 3.108236e-04
-5.323430e-04 4.562940e-04 2.168805e-04
-4.900691e-04 3.675518e-04 1.406680e-04
-4.404973e-04 2.936649e-04 8.157358e-05
-3.892373e-04 2.335424e-04 3.748211e-05
4.432979e-04 2.216490e-04 6.074824e-05
5.081621e-04 2.823123e-04 1.171073e-04
5.732333e-04 3.582708e-04 1.937316e-04
6.318770e-04 4.513407e-04 2.942073e-04
6.742084e-04 5.618403e-04 4.203398e-04
6.873145e-04 6.873145e-04 5.702165e-04
6.569377e-04 8.211721e-04 7.360135e-04
5.711372e-04 9.518953e-04 9.025377e-04
4.255122e-04 1.063781e-03 1.048021e-03
2.279840e-04 1.139920e-03 1.148364e-03
-0.000000e+00 1.166995e-03 1.184284e-03
-2.279840e-04 1.139920e-03 1.148364e-03
-4.255122e-04 1.063781e-03 1.048021e-03
-5.711372e-04 9.518953e-04 9.025377e-04
-6.569377e-04 8.211721e-04 7.360135e-04
-6.873145e-04 6.873145e-04 5.702165e-04
-6.742084e-04 5.618403e-04 4.203398e-04
-6.318770e-04 4.513407e-04 2.942073e-04
-5.732333e-04 3.582708e-04 1.937316e-04
-5.081621e-04 2.823123e-04 1.171073e-04
-4.432979e-04 2.216490e-04 6.074824e-05
4.956764e-04 1.982705e-04 8.444856e-05
5.748523e-04 2.554899e-04 1.537671e-04
6.567333e-04 3.283667e-04 2.493154e-04
7.338033e-04 4.193162e-04 3.766080e-04
7.941196e-04 5.294131e-04 5.392170e-04
8.211721e-04 6.569377e-04 7.360135e-04
7.956602e-04 7.956602e-04 9.577392e-04
7.001972e-04 9.335962e-04 1.184284e-03
5.267328e-04 1.053466e-03 1.385112e-03
2.839871e-04 1.135948e-03 1.525116e-03
-0.000000e+00 1.165452e-03 1.575519e-03
-2.839871e-04 1.135948e-03 1.525116e-03
-5.267328e-04 1.053466e-03 1.385112e-03
-7.001972e-04 9.335962e-04 1.184284e-03
-7.956602e-04 7.956602e-04 9.577392e-04
-8.211721e-04 6.569377e-04 7.360135e-04
-7.941196e-04 5.294131e-04 5.392170e-04
-7.338033e-04 4.193162e-04 3.766080e-04
-6.567333e-04 3.283667e-04 2.493154e-04
-5.748523e-04 2.554899e-04 1.537671e-04
-4.956764e-04 1.982705e-04 8.444856e-05
5.426000e-04 1.627800e-04 1.065104e-04
6.355006e-04 2.118335e-04 1.882965e-04
7.339255e-04 2.752220e-04 3.024045e-04
8.297071e-04 3.555888e-04 4.565584e-04
9.090518e-04 4.545259e-04 6.565374e-04
9.518953e-04 5.711372e-04 9.025377e-04
9.335962e-04 7.001972e-04 1.184284e-03
8.306098e-04 8.306098e-04 1.476640e-03
6.303389e-04 9.455084e-04 1.739269e-03
3.417907e-04 1.025372e-03 1.924155e-03
-0.000000e+00 1.054093e-03 1.991064e-03
-3.417907e-04 1.025372e-03 1.924155e-03
-6.303389e-04 9.455084e-04 1.739269e-03
-8.306098e-04 8.306098e-04 1.476640e-03
-9.335962e-04 7.001972e-04 1.184284e-03
-9.518953e-04 5.711372e-04 9.025377e-04
-9.090518e-04 4.545259e-04 6.565374e-04
-8.297071e-04 3.555888e-04 4.565584e-04
-7.339255e-04 2.752220e-04 3.024045e-04
-6.355006e-04 2.118335e-04 1.882965e-04
-5.426000e-04 1.627800e-04 1.065104e-04
5.800086e-04 1.160017e-04 1.245944e-04
6.844411e-04 1.520980e-04 2.168805e-04
7.970546e-04 1.992637e-04 3.468664e-04
9.092845e-04 2.597956e-04 5.244022e-04
1.005893e-03 3.352975e-04 7.575240e-04
1.063781e-03 4.255122e-04 1.048021e-03
1.053466e-03 5.267328e-04 1.385112e-03
9.455084e-04 6.303389e-04 1.739269e-03
7.226346e-04 7.226346e-04 2.060847e-03
3.936567e-04 7.873134e-04 2.289041e-03
-0.000000e+00 8.106744e-04 2.371973e-03
-3.936567e-04 7.873134e-04 2.289041e-03
-7.226346e-04 7.226346e-04 2.060847e-03
-9.455084e-04 6.303389e-04 1.739269e-03
-1.053466e-03 5.267328e-04 1.385112e-03
-1.063781e-03 4.255122e-04 1.048021e-03
-1.005893e-03 3.352975e-04 7.575240e-04
-9.092845e-04 2.597956e-04 5.244022e-04
-7.970546e-04 1.992637e-04 3.468664e-04
-6.844411e-04 1.520980e-04 2.168805e-04
-5.800086e-04 1.160017e-04 1.245944e-04
6.042064e-04 6.042064e-05 1.365059e-04
7.163698e-04 7.959664e-05 2.358419e-04
8.386324e-04 1.048290e-04 3.766080e-04
9.622404e-04 1.374629e-04 5.702165e-04
1.071051e-03 1.785084e-04 8.264279e-04
1.139920e-03 2.279840e-04 1.148364e-03
1.135948e-03 2.839871e-04 1.525116e-03
1.025372e-03 3.417907e-04 1.924155e-03
7.873134e-04 3.936567e-04 2.289041e-03
4.301981e-04 4.301981e-04 2.549322e-03
-0.000000e+00 4.434341e-04 2.644181e-03
-4.301981e-04 4.301981e-04 2.549322e-03
-7.873134e-04 3.936567e-04 2.289041e-03
-1.025372e-03 3.417907e-04 1.924155e-03
-1.135948e-03 2.839871e-04 1.525116e-03
-1.139920e-03 2.279840e-04 1.148364e-03
-1.071051e-03 1.785084e-04 8.264279e-04
-9.622404e-04 1.374629e-04 5.702165e-04
-8.386324e-04 1.048290e-04 3.766080e-04
-7.163698e-04 7.959664e-05 2.358419e-04
-6.042064e-04 6.042064e-05 1.365059e-04
6.125864e-04 -0.000000e+00 1.406680e-04
7.274761e-04 -0.000000e+00 2.424920e-04
8.531664e-04 -0.000000e+00 3.870848e-04
9.808519e-04 -0.000000e+00 5.864352e-04
1.094083e-03 -0.000000e+00 8.509536e-04
1.166995e-03 -0.000000e+00 1.184284e-03
1.165452e-03 -0.000000e+00 1.575519e-03
1.054093e-03 -0.000000e+00 1.991064e-03
8.106744e-04 -0.000000e+00 2.371973e-03
4.434341e-04 -0.000000e+00 2.644181e-03
-0.000000e+00 -0.000000e+00 2.743484e-03
-4.434341e-04 -0.000000e+00 2.644181e-03
-8.106744e-04 -0.000000e+00 2.371973e-03
-1.054093e-03 -0.000000e+00 1.991064e-03
-1.165452e-03 -0.000000e+00 1.575519e-03
-1.166995e-03 -0.000000e+00 1.184284e-03
-1.094083e-03 -0.000000e+00 8.509536e-04
-9.808519e-04 -0.000000e+00 5.864352e-04
-8.531664e-04 -0.000000e+00 3.870848e-04
-7.274761e-04 -0.000000e+00 2.424920e-04
-6.125864e-04 -0.000000e+00 1.406680e-04
6.042064e-04 -6.042064e-05 1.365059e-04
7.163698e-04 -7.959664e-05 2.358419e-04
8.386324e-04 -1.048290e-04 3.766080e-04
9.622404e-04 -1.374629e-04 5.702165e-04
1.071051e-03 -1.785084e-04 8.264279e-04
1.139920e-03 -2.279840e-04 1.148364e-03
1.135948e-03 -2.839871e-04 1.525116e-03
1.025372e-03 -3.417907e-04 1.924155e-03
7.873134e-04 -3.936567e-04 2.289041e-03
4.301981e-04 -4.301981e-04 2.549322e-03
-0.000000e+00 -4.434341e-04 2.644181e-03
-4.301981e-04 -4.301981e-04 2.549322e-03
-7.873134e-04 -3.936567e-04 2.289041e-03
-1.025372e-03 -3.417907e-04 1.924155e-03
-1.135948e-03 -2.839871e-04 1.525116e-03
-1.139920e-03 -2.279840e-04 1.148364e-03
-1.071051e-03 -1.785084e-04 8.264279e-04
-9.622404e-04 -1.374629e-04 5.702165e-04
-8.386324e-04 -1.048290e-04 3.766080e-04
-7.163698e-04 -7.959664e-05 2.358419e-04
-6.042064e-04 -6.042064e-05 1.365059e-04
5.800086e-04 -1.160017e-04 1.245944e-04
6.844411e-04 -1.520980e-04 2.168805e-04
7.970546e-04 -1.992637e-04 3.468664e-04
9.092845e-04 -2.597956e-04 5.244022e-04
1.005893e-03 -3.352975e-04 7.575240e-04
1.063781e-03 -4.255122e-04 1.048021e-03
1.053466e-03 -5.267328e-04 1.385112e-03
9.455084e-04 -6.303389e-04 1.739269e-03
7.226346e-04 -7.226346e-04 2.060847e-03
3.936567e-04 -7.873134e-04 2.289041e-03
-0.000000e+00 -8.106744e-04 2.371973e-03
-3.936567e-04 -7.873134e-04 2.289041e-03
-7.226346e-04 -7.226346e-04 2.060847e-03
-9.455084e-04 -6.303389e-04 1.739269e-03
-1.053466e-03 -5.267328e-04 1.385112e-03
-1.063781e-03 -4.255122e-04 1.048021e-03
-1.005893e-03 -3.352975e-04 7.575240e-04
-9.092845e-04 -2.597956e-04 5.244022e-04
-7.970546e-04 -1.992637e-04 3.468664e-04
-6.844411e-04 -1.520980e-04 2.168805e-04
-5.800086e-04 -1.160017e-04 1.245944e-04
5.426000e-04 -1.627800e-04 1.065104e-04
6.355006e-04 -2.118335e-04 1.882965e-04
7.339255e-04 -2.752220e-04 3.024045e-04
8.297071e-04 -3.555888e-04 4.565584e-04
9.090518e-04 -4.545259e-04 6.565374e-04
9.518953e-04 -5.711372e-04 9.025377e-04
9.335962e-04 -7.001972e-04 1.184284e-03
8.306098e-04 -8.306098e-04 1.476640e-03
6.303389e-04 -9.455084e-04 1.739269e-03
3.417907e-04 -1.025372e-03 1.924155e-03
-0.000000e+00 -1.054093e-03 1.991064e-03
-3.417907e-04 -1.025372e-03 1.924155e-03
-6.303389e-04 -9.455084e-04 1.739269e-03
-8.306098e-04 -8.306098e-04 1.476640e-03
-9.335962e-04 -7.001972e-04 1.184284e-03
-9.518953e-04 -5.711372e-04 9.025377e-04
-9.090518e-04 -4.545259e-04 6.565374e-04
-8.297071e-04 -3.555888e-04 4.565584e-04
-7.339255e-04 -2.752220e-04 3.024045e-04
-6.355006e-04 -2.118335e-04 1.882965e-04
-5.426000e-04 -1.627800e-04 1.065104e-04
4.956764e-04 -1.982705e-04 8.444856e-05
5.748523e-04 -2.554899e-04 1.537671e-04
6.567333e-04 -3.283667e-04 2.493154e-04
7.338033e-04 -4.193162e-04 3.766080e-04
7.941196e-04 -5.294131e-04 5.392170e-04
8.211721e-04 -6.569377e-04 7.360135e-04
7.956602e-04 -7.956602e-04 9.577392e-04
7.001972e-04 -9.335962e-04 1.184284e-03
5.267328e-04 -1.053466e-03 1.385112e-03
2.839871e-04 -1.135948e-03 1.525116e-03