# vtk DataFile Version 1.0
Vector Field Dataset
ASCII

DATASET STRUCTURED_POINTS
DIMENSIONS 351 351 1
ORIGIN -3.5 -3.5 0.0
SPACING 0.02 0.02 0.00

POINT_DATA 123201

SCALARS myScalars float
LOOKUP_TABLE default
+0.000019
+0.000021
+0.000023
+0.000026
+0.000028
+0.000031
+0.000034
+0.000038
+0.000041
+0.000046
+0.000050
+0.000055
+0.000060
+0.000066
+0.000072
+0.000079
+0.000087
+0.000095
+0.000103
+0.000113
+0.000123
+0.000134
+0.000147
+0.000160
+0.000174
+0.000189
+0.000206
+0.000224
+0.000243
+0.000264
+0.000286
+0.000310
+0.000336
+0.000364
+0.000394
+0.000426
+0.000461
+0.000498
+0.000538
+0.000580
+0.000626
+0.000675
+0.000727
+0.000783
+0.000843
+0.000906
+0.000974
+0.001046
+0.001124
+0.001206
+0.001293
+0.001386
+0.001485
+0.001589
+0.001701
+0.001819
+0.001944
+0.002077
+0.002217
+0.002365
+0.002523
+0.002688
+0.002864
+0.003049
+0.003244
+0.003449
+0.003666
+0.003894
+0.004134
+0.004386
+0.004651
+0.004929
+0.005220
+0.005526
+0.005847
+0.006183
+0.006534
+0.006902
+0.007286
+0.007687
+0.008105
+0.008542
+0.008997
+0.009471
+0.009965
+0.010478
+0.011012
+0.011566
+0.012142
+0.012739
+0.013358
+0.013999
+0.014663
+0.015350
+0.016060
+0.016793
+0.017551
+0.018332
+0.019137
+0.019967
+0.020821
+0.021699
+0.022602
+0.023529
+0.024481
+0.025457
+0.026458
+0.027482
+0.028530
+0.029602
+0.030697
+0.031815
+0.032955
+0.034117
+0.035300
+0.036505
+0.037729
+0.038973
+0.040235
+0.041516
+0.042813
+0.044127
+0.045455
+0.046798
+0.048154
+0.049521
+0.050899
+0.052286
+0.053682
+0.055084
+0.056492
+0.057903
+0.059317
+0.060731
+0.062145
+0.063557
+0.064965
+0.066367
+0.067762
+0.069148
+0.070523
+0.071886
+0.073235
+0.074568
+0.075883
+0.077178
+0.078452
+0.079703
+0.080930
+0.082129
+0.083301
+0.084442
+0.085552
+0.086629
+0.087670
+0.088675
+0.089643
+0.090570
+0.091457
+0.092301
+0.093102
+0.093858
+0.094567
+0.095230
+0.095844
+0.096409
+0.096924
+0.097388
+0.097800
+0.098159
+0.098466
+0.098719
+0.098919
+0.099064
+0.099154
+0.099190
+0.099172
+0.099099
+0.098971
+0.098790
+0.098554
+0.098265
+0.097922
+0.097528
+0.097081
+0.096584
+0.096036
+0.095439
+0.094794
+0.094101
+0.093362
+0.092579
+0.091751
+0.090881
+0.089970
+0.089020
+0.088031
+0.087006
+0.085946
+0.084852
+0.083726
+0.082571
+0.081387
+0.080176
+0.078940
+0.077681
+0.076401
+0.075101
+0.073783
+0.072448
+0.071100
+0.069738
+0.068366
+0.066985
+0.065596
+0.064201
+0.062802
+0.061401
+0.059999
+0.058597
+0.057197
+0.055801
+0.054410
+0.053026
+0.051649
+0.050281
+0.048924
+0.047578
+0.046244
+0.044925
+0.043620
+0.042330
+0.041058
+0.039803
+0.038566
+0.037348
+0.036150
+0.034973
+0.033816
+0.032681
+0.031569
+0.030478
+0.029410
+0.028366
+0.027344
+0.026347
+0.025373
+0.024423
+0.023498
+0.022596
+0.021718
+0.020865
+0.020035
+0.019230
+0.018448
+0.017689
+0.016954
+0.016242
+0.015553
+0.014886
+0.014242
+0.013619
+0.013018
+0.012439
+0.011880
+0.011341
+0.010823
+0.010323
+0.009843
+0.009382
+0.008939
+0.008513
+0.008105
+0.007714
+0.007339
+0.006980
+0.006636
+0.006307
+0.005992
+0.005692
+0.005404
+0.005130
+0.004869
+0.004619
+0.004382
+0.004155
+0.003939
+0.003734
+0.003539
+0.003353
+0.003177
+0.003009
+0.002850
+0.002699
+0.002555
+0.002419
+0.002290
+0.002168
+0.002052
+0.001942
+0.001838
+0.001740
+0.001646
+0.001558
+0.001475
+0.001396
+0.001321
+0.001251
+0.001184
+0.001121
+0.001062
+0.001006
+0.000953
+0.000902
+0.000855
+0.000810
+0.000768
+0.000728
+0.000690
+0.000655
+0.000621
+0.000589
+0.000559
+0.000531
+0.000504
+0.000478
+0.000454
+0.000432
+0.000410
+0.000390
+0.000371
+0.000352
+0.000335
+0.000319
+0.000303
+0.000288
+0.000275
+0.000261
+0.000249
+0.000237
+0.000225
+0.000215
+0.000204
+0.000195
+0.000186
+0.000177
+0.000168
+0.000160
+0.000153
+0.000146
+0.000139
+0.000020
+0.000022
+0.000024
+0.000027
+0.000029
+0.000032
+0.000036
+0.000039
+0.000043
+0.000047
+0.000052
+0.000057
+0.000062
+0.000068
+0.000075
+0.000082
+0.000090
+0.000098
+0.000107
+0.000117
+0.000128
+0.000140
+0.000152
+0.000166
+0.000181
+0.000197
+0.000214
+0.000233
+0.000253
+0.000274
+0.000298
+0.000323
+0.000350
+0.000379
+0.000410
+0.000444
+0.000480
+0.000518
+0.000560
+0.000604
+0.000652
+0.000702
+0.000757
+0.000815
+0.000877
+0.000943
+0.001014
+0.001089
+0.001170
+0.001255
+0.001346
+0.001443
+0.001546
+0.001655
+0.001771
+0.001894
+0.002024
+0.002163
+0.002309
+0.002464
+0.002627
+0.002800
+0.002983
+0.003175
+0.003379
+0.003593
+0.003818
+0.004056
+0.004306
+0.004569
+0.004845
+0.005134
+0.005438
+0.005757
+0.006091
+0.006441
+0.006807
+0.007190
+0.007590
+0.008008
+0.008444
+0.008900
+0.009374
+0.009868
+0.010382
+0.010917
+0.011473
+0.012051
+0.012651
+0.013273
+0.013918
+0.014586
+0.015278
+0.015994
+0.016734
+0.017498
+0.018287
+0.019101
+0.019941
+0.020805
+0.021695
+0.022610
+0.023551
+0.024518
+0.025510
+0.026527
+0.027569
+0.028637
+0.029729
+0.030846
+0.031987
+0.033152
+0.034341
+0.035552
+0.036785
+0.038040
+0.039316
+0.040612
+0.041928
+0.043263
+0.044615
+0.045984
+0.047368
+0.048767
+0.050180
+0.051605
+0.053041
+0.054487
+0.055942
+0.057403
+0.058870
+0.060341
+0.061814
+0.063289
+0.064762
+0.066233
+0.067701
+0.069162
+0.070616
+0.072060
+0.073494
+0.074914
+0.076320
+0.077709
+0.079079
+0.080429
+0.081757
+0.083061
+0.084340
+0.085590
+0.086811
+0.088001
+0.089157
+0.090279
+0.091365
+0.092413
+0.093421
+0.094388
+0.095312
+0.096192
+0.097027
+0.097814
+0.098554
+0.099245
+0.099885
+0.100474
+0.101011
+0.101495
+0.101924
+0.102299
+0.102619
+0.102883
+0.103091
+0.103243
+0.103337
+0.103375
+0.103356
+0.103280
+0.103148
+0.102959
+0.102713
+0.102412
+0.102056
+0.101645
+0.101180
+0.100662
+0.100091
+0.099470
+0.098797
+0.098076
+0.097306
+0.096490
+0.095628
+0.094722
+0.093773
+0.092783
+0.091753
+0.090685
+0.089580
+0.088441
+0.087268
+0.086064
+0.084830
+0.083569
+0.082281
+0.080970
+0.079636
+0.078281
+0.076908
+0.075518
+0.074113
+0.072694
+0.071265
+0.069825
+0.068378
+0.066925
+0.065468
+0.064008
+0.062547
+0.061086
+0.059628
+0.058173
+0.056724
+0.055281
+0.053847
+0.052422
+0.051007
+0.049605
+0.048215
+0.046840
+0.045481
+0.044137
+0.042811
+0.041504
+0.040215
+0.038946
+0.037698
+0.036471
+0.035266
+0.034083
+0.032924
+0.031787
+0.030675
+0.029586
+0.028522
+0.027483
+0.026468
+0.025478
+0.024513
+0.023574
+0.022659
+0.021770
+0.020905
+0.020066
+0.019251
+0.018460
+0.017694
+0.016952
+0.016234
+0.015539
+0.014867
+0.014219
+0.013592
+0.012988
+0.012405
+0.011844
+0.011303
+0.010783
+0.010283
+0.009802
+0.009340
+0.008896
+0.008471
+0.008062
+0.007671
+0.007297
+0.006938
+0.006595
+0.006267
+0.005953
+0.005654
+0.005368
+0.005095
+0.004835
+0.004587
+0.004351
+0.004126
+0.003911
+0.003708
+0.003514
+0.003330
+0.003155
+0.002988
+0.002830
+0.002681
+0.002538
+0.002404
+0.002276
+0.002155
+0.002040
+0.001931
+0.001828
+0.001731
+0.001639
+0.001552
+0.001469
+0.001391
+0.001317
+0.001248
+0.001182
+0.001119
+0.001061
+0.001005
+0.000952
+0.000903
+0.000856
+0.000811
+0.000769
+0.000730
+0.000692
+0.000657
+0.000624
+0.000592
+0.000562
+0.000534
+0.000507
+0.000482
+0.000458
+0.000435
+0.000414
+0.000393
+0.000374
+0.000356
+0.000339
+0.000322
+0.000307
+0.000292
+0.000278
+0.000265
+0.000252
+0.000240
+0.000229
+0.000218
+0.000208
+0.000198
+0.000188
+0.000180
+0.000171
+0.000163
+0.000155
+0.000148
+0.000020
+0.000023
+0.000025
+0.000028
+0.000030
+0.000033
+0.000037
+0.000041
+0.000045
+0.000049
+0.000054
+0.000059
+0.000065
+0.000071
+0.000078
+0.000085
+0.000093
+0.000102
+0.000112
+0.000122
+0.000133
+0.000145
+0.000158
+0.000172
+0.000188
+0.000204
+0.000222
+0.000242
+0.000263
+0.000285
+0.000309
+0.000335
+0.000364
+0.000394
+0.000426
+0.000461
+0.000499
+0.000539
+0.000582
+0.000628
+0.000678
+0.000731
+0.000787
+0.000848
+0.000912
+0.000981
+0.001055
+0.001134
+0.001217
+0.001306
+0.001401
+0.001502
+0.001609
+0.001722
+0.001843
+0.001971
+0.002107
+0.002251
+0.002403
+0.002564
+0.002735
+0.002915
+0.003105
+0.003305
+0.003517
+0.003740
+0.003975
+0.004222
+0.004483
+0.004756
+0.005044
+0.005345
+0.005662
+0.005994
+0.006342
+0.006706
+0.007088
+0.007486
+0.007903
+0.008338
+0.008793
+0.009267
+0.009761
+0.010275
+0.010811
+0.011368
+0.011947
+0.012549
+0.013174
+0.013822
+0.014494
+0.015190
+0.015910
+0.016656
+0.017426
+0.018222
+0.019044
+0.019892
+0.020766
+0.021667
+0.022594
+0.023547
+0.024527
+0.025534
+0.026567
+0.027626
+0.028712
+0.029824
+0.030962
+0.032125
+0.033314
+0.034527
+0.035765
+0.037026
+0.038311
+0.039618
+0.040947
+0.042297
+0.043668
+0.045058
+0.046466
+0.047892
+0.049334
+0.050792
+0.052263
+0.053747
+0.055243
+0.056749
+0.058264
+0.059786
+0.061314
+0.062846
+0.064381
+0.065917
+0.067452
+0.068984
+0.070513
+0.072035
+0.073549
+0.075054
+0.076547
+0.078026
+0.079491
+0.080937
+0.082365
+0.083771
+0.085155
+0.086513
+0.087844
+0.089147
+0.090419
+0.091658
+0.092863
+0.094032
+0.095163
+0.096254
+0.097304
+0.098312
+0.099274
+0.100191
+0.101061
+0.101882
+0.102653
+0.103372
+0.104039
+0.104653
+0.105212
+0.105716
+0.106164
+0.106555
+0.106888
+0.107164
+0.107381
+0.107539
+0.107638
+0.107677
+0.107658
+0.107579
+0.107441
+0.107245
+0.106989
+0.106676
+0.106305
+0.105878
+0.105394
+0.104854
+0.104261
+0.103613
+0.102913
+0.102162
+0.101361
+0.100511
+0.099614
+0.098670
+0.097682
+0.096651
+0.095579
+0.094467
+0.093317
+0.092130
+0.090909
+0.089656
+0.088371
+0.087058
+0.085717
+0.084351
+0.082962
+0.081552
+0.080122
+0.078674
+0.077211
+0.075734
+0.074246
+0.072747
+0.071240
+0.069727
+0.068209
+0.066689
+0.065167
+0.063646
+0.062128
+0.060613
+0.059104
+0.057602
+0.056108
+0.054624
+0.053151
+0.051690
+0.050244
+0.048812
+0.047396
+0.045997
+0.044616
+0.043254
+0.041912
+0.040591
+0.039291
+0.038013
+0.036758
+0.035527
+0.034319
+0.033135
+0.031977
+0.030843
+0.029735
+0.028652
+0.027595
+0.026565
+0.025560
+0.024581
+0.023629
+0.022702
+0.021802
+0.020927
+0.020078
+0.019255
+0.018457
+0.017684
+0.016936
+0.016212
+0.015513
+0.014837
+0.014184
+0.013555
+0.012948
+0.012363
+0.011800
+0.011258
+0.010736
+0.010235
+0.009754
+0.009292
+0.008848
+0.008423
+0.008015
+0.007625
+0.007251
+0.006894
+0.006552
+0.006225
+0.005913
+0.005614
+0.005330
+0.005059
+0.004800
+0.004554
+0.004319
+0.004096
+0.003883
+0.003681
+0.003488
+0.003306
+0.003132
+0.002968
+0.002811
+0.002663
+0.002522
+0.002389
+0.002262
+0.002142
+0.002029
+0.001921
+0.001819
+0.001723
+0.001632
+0.001546
+0.001464
+0.001387
+0.001314
+0.001245
+0.001180
+0.001118
+0.001060
+0.001005
+0.000953
+0.000903
+0.000857
+0.000813
+0.000771
+0.000732
+0.000695
+0.000660
+0.000627
+0.000595
+0.000566
+0.000537
+0.000511
+0.000486
+0.000462
+0.000439
+0.000418
+0.000397
+0.000378
+0.000360
+0.000343
+0.000326
+0.000311
+0.000296
+0.000282
+0.000268
+0.000256
+0.000244
+0.000232
+0.000221
+0.000211
+0.000201
+0.000192
+0.000183
+0.000174
+0.000166
+0.000158
+0.000021
+0.000023
+0.000026
+0.000028
+0.000031
+0.000035
+0.000038
+0.000042
+0.000046
+0.000051
+0.000056
+0.000061
+0.000067
+0.000074
+0.000081
+0.000088
+0.000097
+0.000106
+0.000116
+0.000126
+0.000138
+0.000151
+0.000164
+0.000179
+0.000195
+0.000212
+0.000231
+0.000251
+0.000273
+0.000296
+0.000321
+0.000348
+0.000378
+0.000409
+0.000443
+0.000479
+0.000518
+0.000560
+0.000605
+0.000653
+0.000704
+0.000759
+0.000818
+0.000881
+0.000949
+0.001020
+0.001097
+0.001179
+0.001266
+0.001358
+0.001457
+0.001562
+0.001673
+0.001791
+0.001917
+0.002050
+0.002192
+0.002341
+0.002500
+0.002667
+0.002845
+0.003032
+0.003230
+0.003439
+0.003659
+0.003891
+0.004136
+0.004393
+0.004664
+0.004949
+0.005248
+0.005562
+0.005892
+0.006237
+0.006599
+0.006978
+0.007375
+0.007790
+0.008224
+0.008677
+0.009150
+0.009643
+0.010158
+0.010693
+0.011251
+0.011831
+0.012434
+0.013060
+0.013710
+0.014385
+0.015084
+0.015809
+0.016559
+0.017335
+0.018137
+0.018966
+0.019821
+0.020704
+0.021614
+0.022551
+0.023516
+0.024509
+0.025529
+0.026577
+0.027652
+0.028755
+0.029885
+0.031043
+0.032227
+0.033438
+0.034676
+0.035939
+0.037227
+0.038540
+0.039878
+0.041238
+0.042622
+0.044028
+0.045454
+0.046901
+0.048367
+0.049852
+0.051353
+0.052870
+0.054402
+0.055947
+0.057505
+0.059073
+0.060650
+0.062234
+0.063825
+0.065420
+0.067017
+0.068616
+0.070214
+0.071810
+0.073401
+0.074985
+0.076562
+0.078128
+0.079683
+0.081223
+0.082747
+0.084253
+0.085740
+0.087204
+0.088644
+0.090058
+0.091444
+0.092800
+0.094125
+0.095415
+0.096669
+0.097886
+0.099064
+0.100200
+0.101294
+0.102342
+0.103345
+0.104299
+0.105205
+0.106060
+0.106862
+0.107611
+0.108306
+0.108945
+0.109528
+0.110053
+0.110519
+0.110926
+0.111274
+0.111561
+0.111787
+0.111952
+0.112055
+0.112097
+0.112077
+0.111995
+0.111852
+0.111647
+0.111382
+0.111056
+0.110671
+0.110226
+0.109723
+0.109161
+0.108544
+0.107870
+0.107142
+0.106361
+0.105527
+0.104643
+0.103709
+0.102727
+0.101699
+0.100626
+0.099510
+0.098353
+0.097156
+0.095921
+0.094651
+0.093346
+0.092010
+0.090643
+0.089248
+0.087826
+0.086381
+0.084913
+0.083425
+0.081918
+0.080396
+0.078859
+0.077309
+0.075749
+0.074181
+0.072606
+0.071027
+0.069445
+0.067861
+0.066278
+0.064698
+0.063121
+0.061551
+0.059987
+0.058432
+0.056888
+0.055355
+0.053835
+0.052329
+0.050839
+0.049365
+0.047909
+0.046472
+0.045055
+0.043658
+0.042282
+0.040930
+0.039600
+0.038293
+0.037011
+0.035754
+0.034522
+0.033316
+0.032136
+0.030983
+0.029856
+0.028756
+0.027683
+0.026637
+0.025618
+0.024627
+0.023663
+0.022725
+0.021815
+0.020931
+0.020074
+0.019243
+0.018439
+0.017660
+0.016906
+0.016178
+0.015474
+0.014795
+0.014139
+0.013507
+0.012898
+0.012312
+0.011748
+0.011205
+0.010683
+0.010181
+0.009700
+0.009238
+0.008795
+0.008371
+0.007964
+0.007575
+0.007202
+0.006846
+0.006506
+0.006180
+0.005870
+0.005573
+0.005290
+0.005021
+0.004764
+0.004519
+0.004286
+0.004065
+0.003854
+0.003654
+0.003463
+0.003282
+0.003110
+0.002947
+0.002792
+0.002645
+0.002506
+0.002374
+0.002249
+0.002130
+0.002018
+0.001912
+0.001811
+0.001716
+0.001626
+0.001540
+0.001460
+0.001383
+0.001311
+0.001243
+0.001178
+0.001117
+0.001060
+0.001005
+0.000954
+0.000905
+0.000859
+0.000815
+0.000774
+0.000735
+0.000698
+0.000663
+0.000630
+0.000599
+0.000569
+0.000541
+0.000515
+0.000490
+0.000466
+0.000443
+0.000422
+0.000402
+0.000382
+0.000364
+0.000347
+0.000330
+0.000315
+0.000300
+0.000286
+0.000272
+0.000260
+0.000247
+0.000236
+0.000225
+0.000214
+0.000204
+0.000195
+0.000186
+0.000177
+0.000169
+0.000022
+0.000024
+0.000027
+0.000029
+0.000032
+0.000036
+0.000039
+0.000043
+0.000048
+0.000053
+0.000058
+0.000063
+0.000070
+0.000076
+0.000084
+0.000092
+0.000100
+0.000110
+0.000120
+0.000131
+0.000143
+0.000156
+0.000170
+0.000186
+0.000202
+0.000220
+0.000240
+0.000260
+0.000283
+0.000307
+0.000333
+0.000362
+0.000392
+0.000425
+0.000460
+0.000498
+0.000538
+0.000582
+0.000628
+0.000678
+0.000732
+0.000789
+0.000850
+0.000916
+0.000986
+0.001060
+0.001140
+0.001225
+0.001315
+0.001412
+0.001514
+0.001623
+0.001739
+0.001862
+0.001993
+0.002131
+0.002278
+0.002434
+0.002599
+0.002773
+0.002958
+0.003152
+0.003358
+0.003575
+0.003805
+0.004046
+0.004300
+0.004568
+0.004850
+0.005146
+0.005457
+0.005784
+0.006127
+0.006486
+0.006863
+0.007257
+0.007670
+0.008102
+0.008553
+0.009025
+0.009517
+0.010030
+0.010565
+0.011122
+0.011702
+0.012305
+0.012933
+0.013584
+0.014261
+0.014963
+0.015690
+0.016444
+0.017224
+0.018032
+0.018866
+0.019728
+0.020619
+0.021537
+0.022483
+0.023459
+0.024463
+0.025495
+0.026556
+0.027647
+0.028766
+0.029913
+0.031089
+0.032293
+0.033526
+0.034786
+0.036073
+0.037387
+0.038728
+0.040094
+0.041485
+0.042901
+0.044341
+0.045803
+0.047288
+0.048793
+0.050318
+0.051863
+0.053425
+0.055003
+0.056597
+0.058205
+0.059825
+0.061457
+0.063097
+0.064746
+0.066401
+0.068061
+0.069723
+0.071386
+0.073049
+0.074709
+0.076364
+0.078013
+0.079654
+0.081284
+0.082901
+0.084504
+0.086090
+0.087657
+0.089203
+0.090727
+0.092225
+0.093697
+0.095139
+0.096550
+0.097928
+0.099271
+0.100576
+0.101843
+0.103068
+0.104250
+0.105388
+0.106479
+0.107523
+0.108516
+0.109458
+0.110348
+0.111183
+0.111963
+0.112686
+0.113351
+0.113958
+0.114504
+0.114989
+0.115413
+0.115775
+0.116074
+0.116310
+0.116481
+0.116589
+0.116633
+0.116613
+0.116528
+0.116379
+0.116167
+0.115891
+0.115553
+0.115152
+0.114690
+0.114166
+0.113583
+0.112941
+0.112240
+0.111483
+0.110671
+0.109804
+0.108884
+0.107913
+0.106892
+0.105823
+0.104707
+0.103547
+0.102343
+0.101098
+0.099814
+0.098493
+0.097136
+0.095746
+0.094324
+0.092873
+0.091394
+0.089891
+0.088364
+0.086816
+0.085249
+0.083666
+0.082067
+0.080455
+0.078833
+0.077202
+0.075564
+0.073921
+0.072275
+0.070628
+0.068982
+0.067338
+0.065698
+0.064064
+0.062438
+0.060821
+0.059214
+0.057619
+0.056038
+0.054472
+0.052922
+0.051389
+0.049874
+0.048379
+0.046905
+0.045452
+0.044021
+0.042614
+0.041230
+0.039872
+0.038538
+0.037230
+0.035949
+0.034694
+0.033467
+0.032267
+0.031094
+0.029950
+0.028834
+0.027746
+0.026686
+0.025654
+0.024651
+0.023676
+0.022729
+0.021809
+0.020917
+0.020053
+0.019216
+0.018405
+0.017621
+0.016863
+0.016131
+0.015424
+0.014742
+0.014085
+0.013451
+0.012840
+0.012253
+0.011688
+0.011145
+0.010623
+0.010122
+0.009641
+0.009180
+0.008738
+0.008315
+0.007909
+0.007522
+0.007151
+0.006796
+0.006457
+0.006134
+0.005825
+0.005531
+0.005250
+0.004982
+0.004727
+0.004485
+0.004254
+0.004034
+0.003825
+0.003626
+0.003438
+0.003258
+0.003088
+0.002927
+0.002774
+0.002628
+0.002491
+0.002360
+0.002236
+0.002119
+0.002008
+0.001903
+0.001804
+0.001709
+0.001620
+0.001536
+0.001456
+0.001381
+0.001309
+0.001242
+0.001178
+0.001117
+0.001060
+0.001006
+0.000955
+0.000907
+0.000861
+0.000818
+0.000777
+0.000738
+0.000702
+0.000667
+0.000634
+0.000603
+0.000574
+0.000546
+0.000519
+0.000494
+0.000470
+0.000448
+0.000426
+0.000406
+0.000387
+0.000369
+0.000351
+0.000335
+0.000319
+0.000304
+0.000290
+0.000276
+0.000263
+0.000251
+0.000239
+0.000228
+0.000218
+0.000208
+0.000198
+0.000189
+0.000180
+0.000023
+0.000025
+0.000028
+0.000030
+0.000034
+0.000037
+0.000041
+0.000045
+0.000049
+0.000054
+0.000060
+0.000066
+0.000072
+0.000079
+0.000087
+0.000095
+0.000104
+0.000114
+0.000124
+0.000136
+0.000148
+0.000162
+0.000177
+0.000192
+0.000210
+0.000228
+0.000248
+0.000270
+0.000293
+0.000319
+0.000346
+0.000375
+0.000407
+0.000441
+0.000477
+0.000516
+0.000559
+0.000604
+0.000652
+0.000704
+0.000760
+0.000819
+0.000883
+0.000951
+0.001023
+0.001101
+0.001184
+0.001272
+0.001366
+0.001466
+0.001573
+0.001686
+0.001806
+0.001934
+0.002070
+0.002214
+0.002367
+0.002529
+0.002700
+0.002881
+0.003073
+0.003275
+0.003489
+0.003715
+0.003953
+0.004204
+0.004469
+0.004747
+0.005040
+0.005348
+0.005672
+0.006011
+0.006368
+0.006741
+0.007133
+0.007543
+0.007972
+0.008421
+0.008891
+0.009381
+0.009892
+0.010426
+0.010982
+0.011561
+0.012164
+0.012792
+0.013444
+0.014121
+0.014825
+0.015555
+0.016311
+0.017095
+0.017906
+0.018746
+0.019614
+0.020510
+0.021436
+0.022391
+0.023375
+0.024389
+0.025433
+0.026506
+0.027610
+0.028744
+0.029907
+0.031100
+0.032323
+0.033576
+0.034857
+0.036167
+0.037506
+0.038872
+0.040266
+0.041687
+0.043134
+0.044606
+0.046103
+0.047624
+0.049167
+0.050733
+0.052319
+0.053925
+0.055549
+0.057191
+0.058848
+0.060520
+0.062205
+0.063901
+0.065608
+0.067322
+0.069043
+0.070769
+0.072498
+0.074227
+0.075956
+0.077683
+0.079404
+0.081119
+0.082825
+0.084519
+0.086201
+0.087868
+0.089517
+0.091147
+0.092756
+0.094340
+0.095898
+0.097429
+0.098928
+0.100396
+0.101829
+0.103225
+0.104583
+0.105900
+0.107174
+0.108404
+0.109587
+0.110722
+0.111807
+0.112841
+0.113821
+0.114746
+0.115615
+0.116426
+0.117178
+0.117870
+0.118501
+0.119069
+0.119575
+0.120016
+0.120392
+0.120703
+0.120949
+0.121128
+0.121240
+0.121286
+0.121265
+0.121178
+0.121024
+0.120803
+0.120517
+0.120165
+0.119749
+0.119269
+0.118725
+0.118119
+0.117451
+0.116724
+0.115937
+0.115092
+0.114191
+0.113235
+0.112226
+0.111165
+0.110054
+0.108894
+0.107688
+0.106436
+0.105143
+0.103808
+0.102434
+0.101024
+0.099579
+0.098101
+0.096592
+0.095056
+0.093493
+0.091906
+0.090297
+0.088668
+0.087021
+0.085359
+0.083684
+0.081998
+0.080302
+0.078599
+0.076891
+0.075180
+0.073468
+0.071756
+0.070047
+0.068343
+0.066644
+0.064954
+0.063272
+0.061602
+0.059944
+0.058301
+0.056672
+0.055061
+0.053467
+0.051892
+0.050338
+0.048805
+0.047295
+0.045807
+0.044344
+0.042906
+0.041493
+0.040106
+0.038747
+0.037415
+0.036110
+0.034834
+0.033586
+0.032367
+0.031177
+0.030017
+0.028885
+0.027783
+0.026711
+0.025668
+0.024653
+0.023669
+0.022713
+0.021785
+0.020886
+0.020016
+0.019173
+0.018358
+0.017569
+0.016808
+0.016073
+0.015363
+0.014679
+0.014020
+0.013385
+0.012774
+0.012186
+0.011621
+0.011078
+0.010557
+0.010057
+0.009577
+0.009117
+0.008677
+0.008255
+0.007852
+0.007465
+0.007096
+0.006744
+0.006407
+0.006086
+0.005779
+0.005487
+0.005208
+0.004943
+0.004690
+0.004449
+0.004221
+0.004003
+0.003796
+0.003599
+0.003413
+0.003235
+0.003067
+0.002907
+0.002756
+0.002612
+0.002476
+0.002347
+0.002225
+0.002109
+0.001999
+0.001895
+0.001797
+0.001704
+0.001615
+0.001532
+0.001453
+0.001379
+0.001308
+0.001241
+0.001178
+0.001118
+0.001062
+0.001008
+0.000957
+0.000909
+0.000864
+0.000821
+0.000781
+0.000742
+0.000706
+0.000671
+0.000639
+0.000608
+0.000578
+0.000550
+0.000524
+0.000499
+0.000475
+0.000453
+0.000431
+0.000411
+0.000392
+0.000373
+0.000356
+0.000339
+0.000323
+0.000308
+0.000294
+0.000280
+0.000267
+0.000255
+0.000243
+0.000232
+0.000221
+0.000211
+0.000201
+0.000192
+0.000023
+0.000026
+0.000028
+0.000031
+0.000035
+0.000038
+0.000042
+0.000046
+0.000051
+0.000056
+0.000062
+0.000068
+0.000074
+0.000082
+0.000090
+0.000098
+0.000107
+0.000118
+0.000129
+0.000141
+0.000154
+0.000168
+0.000183
+0.000199
+0.000217
+0.000236
+0.000257
+0.000280
+0.000304
+0.000330
+0.000359
+0.000389
+0.000422
+0.000457
+0.000495
+0.000536
+0.000579
+0.000626
+0.000676
+0.000730
+0.000788
+0.000850
+0.000916
+0.000986
+0.001062
+0.001142
+0.001228
+0.001320
+0.001418
+0.001522
+0.001632
+0.001750
+0.001875
+0.002008
+0.002149
+0.002299
+0.002457
+0.002625
+0.002803
+0.002992
+0.003191
+0.003401
+0.003624
+0.003858
+0.004106
+0.004366
+0.004641
+0.004930
+0.005235
+0.005555
+0.005891
+0.006244
+0.006614
+0.007002
+0.007409
+0.007836
+0.008282
+0.008748
+0.009236
+0.009745
+0.010276
+0.010831
+0.011409
+0.012011
+0.012638
+0.013290
+0.013967
+0.014671
+0.015402
+0.016161
+0.016947
+0.017761
+0.018605
+0.019477
+0.020379
+0.021311
+0.022273
+0.023265
+0.024288
+0.025342
+0.026426
+0.027542
+0.028689
+0.029867
+0.031077
+0.032317
+0.033588
+0.034889
+0.036221
+0.037582
+0.038974
+0.040394
+0.041842
+0.043319
+0.044823
+0.046353
+0.047909
+0.049489
+0.051093
+0.052720
+0.054369
+0.056038
+0.057726
+0.059432
+0.061155
+0.062892
+0.064643
+0.066406
+0.068180
+0.069962
+0.071750
+0.073544
+0.075341
+0.077138
+0.078935
+0.080730
+0.082519
+0.084301
+0.086074
+0.087835
+0.089584
+0.091316
+0.093030
+0.094724
+0.096396
+0.098043
+0.099662
+0.101253
+0.102812
+0.104337
+0.105827
+0.107278
+0.108689
+0.110058
+0.111383
+0.112661
+0.113891
+0.115071
+0.116199
+0.117273
+0.118292
+0.119254
+0.120157
+0.121000
+0.121782
+0.122502
+0.123158
+0.123749
+0.124274
+0.124733
+0.125125
+0.125448
+0.125704
+0.125890
+0.126008
+0.126056
+0.126034
+0.125944
+0.125784
+0.125555
+0.125258
+0.124893
+0.124461
+0.123962
+0.123398
+0.122768
+0.122075
+0.121319
+0.120502
+0.119625
+0.118689
+0.117696
+0.116647
+0.115545
+0.114391
+0.113186
+0.111933
+0.110633
+0.109289
+0.107902
+0.106475
+0.105010
+0.103509
+0.101973
+0.100406
+0.098810
+0.097186
+0.095537
+0.093865
+0.092173
+0.090463
+0.088736
+0.086995
+0.085243
+0.083481
+0.081712
+0.079938
+0.078160
+0.076381
+0.074603
+0.072827
+0.071056
+0.069291
+0.067534
+0.065788
+0.064052
+0.062330
+0.060622
+0.058930
+0.057255
+0.055599
+0.053963
+0.052348
+0.050756
+0.049186
+0.047641
+0.046120
+0.044626
+0.043158
+0.041717
+0.040304
+0.038920
+0.037564
+0.036238
+0.034941
+0.033675
+0.032438
+0.031232
+0.030057
+0.028911
+0.027797
+0.026712
+0.025659
+0.024635
+0.023641
+0.022678
+0.021744
+0.020839
+0.019963
+0.019115
+0.018296
+0.017504
+0.016740
+0.016003
+0.015292
+0.014606
+0.013946
+0.013311
+0.012700
+0.012113
+0.011548
+0.011006
+0.010486
+0.009987
+0.009509
+0.009051
+0.008612
+0.008192
+0.007791
+0.007407
+0.007040
+0.006690
+0.006356
+0.006037
+0.005732
+0.005442
+0.005166
+0.004903
+0.004653
+0.004414
+0.004188
+0.003972
+0.003767
+0.003573
+0.003388
+0.003213
+0.003046
+0.002888
+0.002739
+0.002597
+0.002462
+0.002334
+0.002214
+0.002099
+0.001991
+0.001888
+0.001791
+0.001699
+0.001612
+0.001529
+0.001451
+0.001377
+0.001307
+0.001241
+0.001179
+0.001120
+0.001064
+0.001010
+0.000960
+0.000913
+0.000868
+0.000825
+0.000785
+0.000747
+0.000710
+0.000676
+0.000643
+0.000613
+0.000583
+0.000555
+0.000529
+0.000504
+0.000480
+0.000458
+0.000436
+0.000416
+0.000397
+0.000378
+0.000361
+0.000344
+0.000328
+0.000313
+0.000298
+0.000285
+0.000272
+0.000259
+0.000247
+0.000236
+0.000225
+0.000215
+0.000205
+0.000024
+0.000026
+0.000029
+0.000032
+0.000036
+0.000039
+0.000043
+0.000048
+0.000053
+0.000058
+0.000064
+0.000070
+0.000077
+0.000084
+0.000093
+0.000101
+0.000111
+0.000122
+0.000133
+0.000145
+0.000159
+0.000173
+0.000189
+0.000206
+0.000225
+0.000245
+0.000266
+0.000290
+0.000315
+0.000342
+0.000371
+0.000403
+0.000437
+0.000473
+0.000513
+0.000555
+0.000600
+0.000649
+0.000701
+0.000757
+0.000817
+0.000881
+0.000950
+0.001023
+0.001101
+0.001185
+0.001274
+0.001369
+0.001470
+0.001578
+0.001693
+0.001815
+0.001945
+0.002083
+0.002230
+0.002385
+0.002550
+0.002724
+0.002909
+0.003105
+0.003311
+0.003530
+0.003761
+0.004004
+0.004261
+0.004532
+0.004817
+0.005118
+0.005434
+0.005766
+0.006115
+0.006481
+0.006866
+0.007269
+0.007692
+0.008135
+0.008598
+0.009082
+0.009589
+0.010118
+0.010670
+0.011245
+0.011846
+0.012471
+0.013122
+0.013799
+0.014503
+0.015234
+0.015993
+0.016781
+0.017598
+0.018444
+0.019319
+0.020225
+0.021162
+0.022130
+0.023129
+0.024160
+0.025222
+0.026317
+0.027444
+0.028603
+0.029794
+0.031018
+0.032274
+0.033562
+0.034882
+0.036234
+0.037617
+0.039031
+0.040476
+0.041951
+0.043456
+0.044990
+0.046552
+0.048141
+0.049757
+0.051399
+0.053065
+0.054755
+0.056467
+0.058201
+0.059955
+0.061727
+0.063516
+0.065321
+0.067140
+0.068971
+0.070813
+0.072664
+0.074522
+0.076385
+0.078252
+0.080119
+0.081986
+0.083850
+0.085708
+0.087559
+0.089401
+0.091231
+0.093047
+0.094846
+0.096627
+0.098387
+0.100123
+0.101834
+0.103517
+0.105169
+0.106789
+0.108373
+0.109920
+0.111428
+0.112894
+0.114316
+0.115692
+0.117020
+0.118298
+0.119524
+0.120696
+0.121812
+0.122871
+0.123870
+0.124808
+0.125685
+0.126497
+0.127245
+0.127927
+0.128541
+0.129087
+0.129564
+0.129971
+0.130308
+0.130574
+0.130768
+0.130890
+0.130940
+0.130919
+0.130825
+0.130660
+0.130423
+0.130115
+0.129736
+0.129287
+0.128770
+0.128184
+0.127531
+0.126811
+0.126027
+0.125178
+0.124268
+0.123296
+0.122265
+0.121177
+0.120032
+0.118834
+0.117583
+0.116282
+0.114932
+0.113537
+0.112097
+0.110616
+0.109094
+0.107535
+0.105941
+0.104314
+0.102656
+0.100970
+0.099258
+0.097522
+0.095765
+0.093989
+0.092196
+0.090389
+0.088569
+0.086740
+0.084903
+0.083060
+0.081214
+0.079367
+0.077520
+0.075676
+0.073837
+0.072004
+0.070180
+0.068366
+0.066564
+0.064775
+0.063002
+0.061245
+0.059506
+0.057786
+0.056087
+0.054410
+0.052756
+0.051126
+0.049521
+0.047942
+0.046390
+0.044866
+0.043369
+0.041902
+0.040464
+0.039057
+0.037679
+0.036333
+0.035017
+0.033733
+0.032480
+0.031259
+0.030070
+0.028912
+0.027786
+0.026691
+0.025628
+0.024596
+0.023595
+0.022625
+0.021685
+0.020775
+0.019894
+0.019043
+0.018221
+0.017427
+0.016661
+0.015922
+0.015210
+0.014524
+0.013864
+0.013229
+0.012619
+0.012032
+0.011469
+0.010929
+0.010410
+0.009913
+0.009437
+0.008981
+0.008545
+0.008127
+0.007728
+0.007347
+0.006982
+0.006635
+0.006303
+0.005986
+0.005685
+0.005397
+0.005124
+0.004863
+0.004615
+0.004379
+0.004155
+0.003942
+0.003739
+0.003547
+0.003364
+0.003191
+0.003026
+0.002870
+0.002722
+0.002582
+0.002449
+0.002323
+0.002204
+0.002090
+0.001983
+0.001882
+0.001786
+0.001695
+0.001609
+0.001527
+0.001450
+0.001377
+0.001308
+0.001242
+0.001180
+0.001122
+0.001066
+0.001014
+0.000964
+0.000917
+0.000872
+0.000830
+0.000789
+0.000751
+0.000715
+0.000681
+0.000649
+0.000618
+0.000589
+0.000561
+0.000535
+0.000510
+0.000486
+0.000463
+0.000442
+0.000421
+0.000402
+0.000383
+0.000366
+0.000349
+0.000333
+0.000317
+0.000303
+0.000289
+0.000276
+0.000263
+0.000251
+0.000240
+0.000229
+0.000218
+0.000025
+0.000027
+0.000030
+0.000033
+0.000037
+0.000041
+0.000045
+0.000049
+0.000054
+0.000060
+0.000066
+0.000072
+0.000079
+0.000087
+0.000096
+0.000105
+0.000115
+0.000126
+0.000137
+0.000150
+0.000164
+0.000179
+0.000196
+0.000213
+0.000232
+0.000253
+0.000276
+0.000300
+0.000326
+0.000354
+0.000384
+0.000417
+0.000452
+0.000490
+0.000531
+0.000575
+0.000622
+0.000672
+0.000726
+0.000784
+0.000846
+0.000913
+0.000984
+0.001060
+0.001141
+0.001228
+0.001320
+0.001419
+0.001524
+0.001636
+0.001755
+0.001882
+0.002017
+0.002160
+0.002312
+0.002473
+0.002644
+0.002825
+0.003017
+0.003220
+0.003434
+0.003661
+0.003900
+0.004153
+0.004420
+0.004701
+0.004997
+0.005309
+0.005637
+0.005982
+0.006344
+0.006724
+0.007123
+0.007542
+0.007981
+0.008440
+0.008921
+0.009424
+0.009949
+0.010498
+0.011071
+0.011669
+0.012292
+0.012941
+0.013617
+0.014320
+0.015050
+0.015809
+0.016598
+0.017415
+0.018263
+0.019141
+0.020050
+0.020991
+0.021963
+0.022968
+0.024005
+0.025075
+0.026178
+0.027314
+0.028484
+0.029687
+0.030924
+0.032194
+0.033498
+0.034835
+0.036205
+0.037609
+0.039045
+0.040513
+0.042013
+0.043544
+0.045107
+0.046699
+0.048320
+0.049970
+0.051648
+0.053352
+0.055082
+0.056837
+0.058614
+0.060414
+0.062235
+0.064075
+0.065932
+0.067806
+0.069694
+0.071596
+0.073508
+0.075429
+0.077358
+0.079293
+0.081230
+0.083169
+0.085107
+0.087042
+0.088971
+0.090893
+0.092805
+0.094705
+0.096591
+0.098459
+0.100308
+0.102135
+0.103938
+0.105714
+0.107461
+0.109176
+0.110858
+0.112503
+0.114109
+0.115675
+0.117197
+0.118674
+0.120103
+0.121481
+0.122808
+0.124081
+0.125298
+0.126457
+0.127556
+0.128594
+0.129569
+0.130479
+0.131323
+0.132099
+0.132807
+0.133445
+0.134013
+0.134508