# vtk DataFile Version 1.0
2D Sin graph datase
ASCII

DATASET STRUCTURED_POINTS
DIMENSIONS 201 201 1
ORIGIN 0 0 0
SPACING 0.05 0.05 0.05

POINT_DATA 40401

SCALARS scalars float
LOOKUP_TABLE default
0.0031
-0.0055
-0.0139
-0.0213
-0.0272
-0.0311
-0.0327
-0.0319
-0.0287
-0.0233
-0.0161
-0.0077
0.0015
0.0107
0.0193
0.0268
0.0326
0.0363
0.0378
0.0368
0.0335
0.0280
0.0206
0.0119
0.0024
-0.0075
-0.0171
-0.0259
-0.0334
-0.0393
-0.0431
-0.0446
-0.0439
-0.0410
-0.0360
-0.0291
-0.0207
-0.0113
-0.0011
0.0092
0.0193
0.0287
0.0371
0.0441
0.0494
0.0530
0.0546
0.0542
0.0519
0.0479
0.0422
0.0350
0.0268
0.0176
0.0078
-0.0022
-0.0123
-0.0221
-0.0315
-0.0401
-0.0479
-0.0546
-0.0602
-0.0646
-0.0678
-0.0697
-0.0704
-0.0699
-0.0683
-0.0658
-0.0623
-0.0581
-0.0531
-0.0476
-0.0417
-0.0355
-0.0290
-0.0224
-0.0158
-0.0092
-0.0028
0.0035
0.0095
0.0153
0.0207
0.0258
0.0306
0.0350
0.0391
0.0428
0.0461
0.0490
0.0517
0.0539
0.0559
0.0575
0.0588
0.0598
0.0606
0.0610
0.0611
0.0610
0.0606
0.0598
0.0588
0.0575
0.0559
0.0539
0.0517
0.0490
0.0461
0.0428
0.0391
0.0350
0.0306
0.0258
0.0207
0.0153
0.0095
0.0035
-0.0028
-0.0092
-0.0158
-0.0224
-0.0290
-0.0355
-0.0417
-0.0476
-0.0531
-0.0581
-0.0623
-0.0658
-0.0683
-0.0699
-0.0704
-0.0697
-0.0678
-0.0646
-0.0602
-0.0546
-0.0479
-0.0401
-0.0315
-0.0221
-0.0123
-0.0022
0.0078
0.0176
0.0268
0.0350
0.0422
0.0479
0.0519
0.0542
0.0546
0.0530
0.0494
0.0441
0.0371
0.0287
0.0193
0.0092
-0.0011
-0.0113
-0.0207
-0.0291
-0.0360
-0.0410
-0.0439
-0.0446
-0.0431
-0.0393
-0.0334
-0.0259
-0.0171
-0.0075
0.0024
0.0119
0.0206
0.0280
0.0335
0.0368
0.0378
0.0363
0.0326
0.0268
0.0193
0.0107
0.0015
-0.0077
-0.0161
-0.0233
-0.0287
-0.0319
-0.0327
-0.0311
-0.0272
-0.0213
-0.0139
-0.0055
0.0031
-0.0055
-0.0140
-0.0214
-0.0273
-0.0312
-0.0327
-0.0317
-0.0283
-0.0227
-0.0153
-0.0067
0.0026
0.0119
0.0205
0.0279
0.0334
0.0368
0.0378
0.0363
0.0323
0.0263
0.0184
0.0093
-0.0006
-0.0106
-0.0202
-0.0288
-0.0359
-0.0410
-0.0440
-0.0446
-0.0429
-0.0388
-0.0327
-0.0249
-0.0156
-0.0055
0.0051
0.0156
0.0256
0.0346
0.0422
0.0482
0.0523
0.0544
0.0544
0.0523
0.0483
0.0425
0.0351
0.0265
0.0169
0.0066
-0.0039
-0.0145
-0.0247
-0.0344
-0.0432
-0.0510
-0.0576
-0.0629
-0.0668
-0.0693
-0.0703
-0.0700
-0.0684
-0.0656
-0.0617
-0.0568
-0.0510
-0.0446
-0.0376
-0.0302
-0.0226
-0.0147
-0.0069
0.0009
0.0085
0.0159
0.0230
0.0298
0.0362
0.0421
0.0476
0.0527
0.0574
0.0616
0.0654
0.0687
0.0717
0.0744
0.0767
0.0787
0.0803
0.0817
0.0829
0.0838
0.0845
0.0850
0.0853
0.0854
0.0853
0.0850
0.0845
0.0838
0.0829
0.0817
0.0803
0.0787
0.0767
0.0744
0.0717
0.0687
0.0654
0.0616
0.0574
0.0527
0.0476
0.0421
0.0362
0.0298
0.0230
0.0159
0.0085
0.0009
-0.0069
-0.0147
-0.0226
-0.0302
-0.0376
-0.0446
-0.0510
-0.0568
-0.0617
-0.0656
-0.0684
-0.0700
-0.0703
-0.0693
-0.0668
-0.0629
-0.0576
-0.0510
-0.0432
-0.0344
-0.0247
-0.0145
-0.0039
0.0066
0.0169
0.0265
0.0351
0.0425
0.0483
0.0523
0.0544
0.0544
0.0523
0.0482
0.0422
0.0346
0.0256
0.0156
0.0051
-0.0055
-0.0156
-0.0249
-0.0327
-0.0388
-0.0429
-0.0446
-0.0440
-0.0410
-0.0359
-0.0288
-0.0202
-0.0106
-0.0006
0.0093
0.0184
0.0263
0.0323
0.0363
0.0378
0.0368
0.0334
0.0279
0.0205
0.0119
0.0026
-0.0067
-0.0153
-0.0227
-0.0283
-0.0317
-0.0327
-0.0312
-0.0273
-0.0214
-0.0140
-0.0055
-0.0139
-0.0214
-0.0274
-0.0313
-0.0327
-0.0317
-0.0281
-0.0223
-0.0147
-0.0059
0.0036
0.0129
0.0215
0.0288
0.0341
0.0371
0.0377
0.0357
0.0312
0.0246
0.0163
0.0068
-0.0034
-0.0135
-0.0230
-0.0313
-0.0379
-0.0424
-0.0445
-0.0442
-0.0414
-0.0364
-0.0293
-0.0205
-0.0105
0.0001
0.0110
0.0215
0.0312
0.0396
0.0464
0.0513
0.0540
0.0546
0.0529
0.0491
0.0434
0.0360
0.0271
0.0172
0.0065
-0.0045
-0.0155
-0.0262
-0.0361
-0.0452
-0.0531
-0.0596
-0.0647
-0.0681
-0.0700
-0.0703
-0.0691
-0.0663
-0.0623
-0.0571
-0.0508
-0.0437
-0.0359
-0.0275
-0.0188
-0.0098
-0.0009
0.0080
0.0168
0.0252
0.0332
0.0408
0.0479
0.0545
0.0606
0.0660
0.0710
0.0754
0.0792
0.0826
0.0855
0.0880
0.0901
0.0918
0.0933
0.0944
0.0954
0.0961
0.0967
0.0971
0.0975
0.0977
0.0978
0.0979
0.0980
0.0979
0.0978
0.0977
0.0975
0.0971
0.0967
0.0961
0.0954
0.0944
0.0933
0.0918
0.0901
0.0880
0.0855
0.0826
0.0792
0.0754
0.0710
0.0660
0.0606
0.0545
0.0479
0.0408
0.0332
0.0252
0.0168
0.0080
-0.0009
-0.0098
-0.0188
-0.0275
-0.0359
-0.0437
-0.0508
-0.0571
-0.0623
-0.0663
-0.0691
-0.0703
-0.0700
-0.0681
-0.0647
-0.0596
-0.0531
-0.0452
-0.0361
-0.0262
-0.0155
-0.0045
0.0065
0.0172
0.0271
0.0360
0.0434
0.0491
0.0529
0.0546
0.0540
0.0513
0.0464
0.0396
0.0312
0.0215
0.0110
0.0001
-0.0105
-0.0205
-0.0293
-0.0364
-0.0414
-0.0442
-0.0445
-0.0424
-0.0379
-0.0313
-0.0230
-0.0135
-0.0034
0.0068
0.0163
0.0246
0.0312
0.0357
0.0377
0.0371
0.0341
0.0288
0.0215
0.0129
0.0036
-0.0059
-0.0147
-0.0223
-0.0281
-0.0317
-0.0327
-0.0313
-0.0274
-0.0214
-0.0139
-0.0213
-0.0273
-0.0313
-0.0327
-0.0316
-0.0279
-0.0220
-0.0143
-0.0053
0.0043
0.0138
0.0224
0.0295
0.0346
0.0374
0.0375
0.0351
0.0302
0.0231
0.0144
0.0045
-0.0059
-0.0161
-0.0254
-0.0334
-0.0395
-0.0433
-0.0447
-0.0435
-0.0397
-0.0337
-0.0257
-0.0162
-0.0056
0.0055
0.0165
0.0269
0.0362
0.0439
0.0497
0.0533
0.0546
0.0536
0.0503
0.0449
0.0376
0.0286
0.0185
0.0075
-0.0039
-0.0154
-0.0265
-0.0369
-0.0462
-0.0543
-0.0609
-0.0658
-0.0689
-0.0703
-0.0699
-0.0678
-0.0641
-0.0590
-0.0526
-0.0450
-0.0366
-0.0275
-0.0179
-0.0080
0.0020
0.0120
0.0217
0.0311
0.0400
0.0484
0.0562
0.0633
0.0697
0.0754
0.0803
0.0846
0.0882
0.0912
0.0937
0.0955
0.0969
0.0979
0.0986
0.0989
0.0989
0.0988
0.0985
0.0981
0.0977
0.0972
0.0968
0.0964
0.0960
0.0958
0.0956
0.0956
0.0956
0.0958
0.0960
0.0964
0.0968
0.0972
0.0977
0.0981
0.0985
0.0988
0.0989
0.0989
0.0986
0.0979
0.0969
0.0955
0.0937
0.0912
0.0882
0.0846
0.0803
0.0754
0.0697
0.0633
0.0562
0.0484
0.0400
0.0311
0.0217
0.0120
0.0020
-0.0080
-0.0179
-0.0275
-0.0366
-0.0450
-0.0526
-0.0590
-0.0641
-0.0678
-0.0699
-0.0703
-0.0689
-0.0658
-0.0609
-0.0543
-0.0462
-0.0369
-0.0265
-0.0154
-0.0039
0.0075
0.0185
0.0286
0.0376
0.0449
0.0503
0.0536
0.0546
0.0533
0.0497
0.0439
0.0362
0.0269
0.0165
0.0055
-0.0056
-0.0162
-0.0257
-0.0337
-0.0397
-0.0435
-0.0447
-0.0433
-0.0395
-0.0334
-0.0254
-0.0161
-0.0059
0.0045
0.0144
0.0231
0.0302
0.0351
0.0375
0.0374
0.0346
0.0295
0.0224
0.0138
0.0043
-0.0053
-0.0143
-0.0220
-0.0279
-0.0316
-0.0327
-0.0313
-0.0273
-0.0213
-0.0272
-0.0312
-0.0327
-0.0316
-0.0279
-0.0219
-0.0140
-0.0048
0.0049
0.0144
0.0230
0.0300
0.0350
0.0375
0.0374
0.0345
0.0292
0.0217
0.0126
0.0024
-0.0081
-0.0183
-0.0275
-0.0352
-0.0408
-0.0440
-0.0446
-0.0425
-0.0378
-0.0309
-0.0221
-0.0119
-0.0008
0.0106
0.0216
0.0317
0.0404
0.0473
0.0520
0.0544
0.0543
0.0517
0.0468
0.0398
0.0310
0.0208
0.0096
-0.0022
-0.0141
-0.0257
-0.0366
-0.0463
-0.0547
-0.0614
-0.0664
-0.0694
-0.0704
-0.0695
-0.0667
-0.0621
-0.0560
-0.0485
-0.0398
-0.0302
-0.0199
-0.0092
0.0017
0.0126
0.0234
0.0337
0.0435
0.0527
0.0611
0.0687
0.0755
0.0813
0.0863
0.0903
0.0935
0.0959
0.0976
0.0986
0.0989
0.0988
0.0981
0.0971
0.0957
0.0941
0.0924
0.0905
0.0886
0.0868
0.0849
0.0832
0.0817
0.0803
0.0791
0.0782
0.0775
0.0771
0.0770
0.0771
0.0775
0.0782
0.0791
0.0803
0.0817
0.0832
0.0849
0.0868
0.0886
0.0905
0.0924
0.0941
0.0957
0.0971
0.0981
0.0988
0.0989
0.0986
0.0976
0.0959
0.0935
0.0903
0.0863
0.0813
0.0755
0.0687
0.0611
0.0527
0.0435
0.0337
0.0234
0.0126
0.0017
-0.0092
-0.0199
-0.0302
-0.0398
-0.0485
-0.0560
-0.0621
-0.0667
-0.0695
-0.0704
-0.0694
-0.0664
-0.0614
-0.0547
-0.0463
-0.0366
-0.0257
-0.0141
-0.0022
0.0096
0.0208
0.0310
0.0398
0.0468
0.0517
0.0543
0.0544
0.0520
0.0473
0.0404
0.0317
0.0216
0.0106
-0.0008
-0.0119
-0.0221
-0.0309
-0.0378
-0.0425
-0.0446
-0.0440
-0.0408
-0.0352
-0.0275
-0.0183
-0.0081
0.0024
0.0126
0.0217
0.0292
0.0345
0.0374
0.0375
0.0350
0.0300
0.0230
0.0144
0.0049
-0.0048
-0.0140
-0.0219
-0.0279
-0.0316
-0.0327
-0.0312
-0.0272
-0.0311
-0.0327
-0.0317
-0.0279
-0.0219
-0.0139
-0.0046
0.0052
0.0148
0.0234
0.0305
0.0353
0.0376
0.0372
0.0340
0.0283
0.0205
0.0110
0.0006
-0.0101
-0.0203
-0.0294
-0.0367
-0.0418
-0.0444
-0.0442
-0.0413
-0.0359
-0.0281
-0.0186
-0.0078
0.0037
0.0153
0.0262
0.0359
0.0440
0.0500
0.0536
0.0546
0.0531
0.0490
0.0425
0.0341
0.0240
0.0126
0.0006
-0.0117
-0.0238
-0.0352
-0.0455
-0.0543
-0.0614
-0.0665
-0.0695
-0.0704
-0.0691
-0.0658
-0.0605
-0.0536
-0.0451
-0.0355
-0.0248
-0.0135
-0.0018
0.0100
0.0217
0.0331
0.0439
0.0539
0.0631
0.0714
0.0785
0.0846
0.0896
0.0935
0.0963
0.0980
0.0989
0.0988
0.0979
0.0964
0.0942
0.0915
0.0885
0.0851
0.0814
0.0777
0.0738
0.0700
0.0663
0.0627
0.0593
0.0561
0.0532
0.0507
0.0484
0.0466
0.0451
0.0441
0.0435
0.0433
0.0435
0.0441
0.0451
0.0466
0.0484
0.0507
0.0532
0.0561
0.0593
0.0627
0.0663
0.0700
0.0738
0.0777
0.0814
0.0851
0.0885
0.0915
0.0942
0.0964
0.0979
0.0988
0.0989
0.0980
0.0963
0.0935
0.0896
0.0846
0.0785
0.0714
0.0631
0.0539
0.0439
0.0331
0.0217
0.0100
-0.0018
-0.0135
-0.0248
-0.0355
-0.0451
-0.0536
-0.0605
-0.0658
-0.0691
-0.0704
-0.0695
-0.0665
-0.0614
-0.0543
-0.0455
-0.0352
-0.0238
-0.0117
0.0006
0.0126
0.0240
0.0341
0.0425
0.0490
0.0531
0.0546
0.0536
0.0500
0.0440
0.0359
0.0262
0.0153
0.0037
-0.0078
-0.0186
-0.0281
-0.0359
-0.0413
-0.0442
-0.0444
-0.0418
-0.0367
-0.0294
-0.0203
-0.0101
0.0006
0.0110
0.0205
0.0283
0.0340
0.0372
0.0376
0.0353
0.0305
0.0234
0.0148
0.0052
-0.0046
-0.0139
-0.0219
-0.0279
-0.0317
-0.0327
-0.0311
-0.0327
-0.0317
-0.0281
-0.0220
-0.0140
-0.0046
0.0053
0.0150
0.0237
0.0307
0.0355
0.0377
0.0370
0.0336
0.0276
0.0194
0.0097
-0.0009
-0.0118
-0.0220
-0.0309
-0.0380
-0.0426
-0.0446
-0.0438
-0.0401
-0.0338
-0.0254
-0.0152
-0.0039
0.0079
0.0195
0.0303
0.0396
0.0470
0.0520
0.0544
0.0541
0.0511
0.0456
0.0377
0.0279
0.0167
0.0044
-0.0082
-0.0208
-0.0328
-0.0437
-0.0531
-0.0607
-0.0662
-0.0694
-0.0704
-0.0690
-0.0653
-0.0596
-0.0520
-0.0428
-0.0322
-0.0207
-0.0084
0.0041
0.0168
0.0291
0.0410
0.0521
0.0623
0.0714
0.0792
0.0858
0.0910
0.0949
0.0975
0.0987
0.0988
0.0978
0.0957
0.0928
0.0890
0.0846
0.0796
0.0743
0.0686
0.0627
0.0567
0.0507
0.0447
0.0389
0.0334
0.0281
0.0231
0.0185
0.0143
0.0106
0.0073
0.0045
0.0021
0.0003
-0.0010
-0.0018
-0.0020
-0.0018
-0.0010
0.0003
0.0021
0.0045
0.0073
0.0106
0.0143
0.0185
0.0231
0.0281
0.0334
0.0389
0.0447
0.0507
0.0567
0.0627
0.0686
0.0743
0.0796
0.0846
0.0890
0.0928
0.0957
0.0978
0.0988
0.0987
0.0975
0.0949
0.0910
0.0858
0.0792
0.0714
0.0623
0.0521
0.0410
0.0291
0.0168
0.0041
-0.0084
-0.0207
-0.0322
-0.0428
-0.0520
-0.0596
-0.0653
-0.0690
-0.0704
-0.0694
-0.0662
-0.0607
-0.0531
-0.0437
-0.0328
-0.0208
-0.0082
0.0044
0.0167
0.0279
0.0377
0.0456
0.0511
0.0541
0.0544
0.0520
0.0470
0.0396
0.0303
0.0195
0.0079
-0.0039
-0.0152
-0.0254
-0.0338
-0.0401
-0.0438
-0.0446
-0.0426
-0.0380
-0.0309
-0.0220
-0.0118
-0.0009
0.0097
0.0194
0.0276
0.0336
0.0370
0.0377
0.0355
0.0307
0.0237
0.0150
0.0053
-0.0046
-0.0140
-0.0220
-0.0281
-0.0317
-0.0327
-0.0319
-0.0283
-0.0223
-0.0143
-0.0048
0.0052
0.0150
0.0238
0.0308
0.0356
0.0377
0.0369
0.0333
0.0270
0.0186
0.0086
-0.0023
-0.0132
-0.0234
-0.0322
-0.0390
-0.0432
-0.0447
-0.0432
-0.0388
-0.0319
-0.0227
-0.0120
-0.0002
0.0118
0.0234
0.0339
0.0427
0.0493
0.0534
0.0546
0.0530
0.0487
0.0417
0.0325
0.0216
0.0093
-0.0036
-0.0166
-0.0292
-0.0408
-0.0510
-0.0593
-0.0654
-0.0691
-0.0704
-0.0691
-0.0654
-0.0594
-0.0513
-0.0415
-0.0302
-0.0179
-0.0048
0.0085
0.0219
0.0349
0.0472
0.0585
0.0687
0.0776
0.0850
0.0909
0.0951
0.0978
0.0989
0.0985
0.0967
0.0937
0.0895
0.0843
0.0782
0.0714
0.0641
0.0563
0.0482
0.0400
0.0318
0.0236
0.0156
0.0078
0.0003
-0.0068
-0.0135
-0.0197
-0.0254
-0.0307
-0.0354
-0.0395
-0.0431
-0.0462
-0.0487
-0.0506
-0.0520
-0.0529
-0.0531
-0.0529
-0.0520
-0.0506
-0.0487
-0.0462
-0.0431
-0.0395
-0.0354
-0.0307
-0.0254
-0.0197
-0.0135
-0.0068
0.0003
0.0078
0.0156
0.0236
0.0318
0.0400
0.0482
0.0563
0.0641
0.0714
0.0782
0.0843
0.0895
0.0937
0.0967
0.0985
0.0989
0.0978
0.0951
0.0909
0.0850
0.0776
0.0687
0.0585
0.0472
0.0349
0.0219
0.0085
-0.0048
-0.0179
-0.0302
-0.0415
-0.0513
-0.0594
-0.0654
-0.0691
-0.0704
-0.0691
-0.0654
-0.0593
-0.0510
-0.0408
-0.0292
-0.0166
-0.0036
0.0093
0.0216
0.0325
0.0417
0.0487
0.0530
0.0546
0.0534
0.0493
0.0427
0.0339
0.0234
0.0118
-0.0002
-0.0120
-0.0227
-0.0319
-0.0388
-0.0432
-0.0447
-0.0432
-0.0390
-0.0322
-0.0234
-0.0132
-0.0023
0.0086
0.0186
0.0270
0.0333
0.0369
0.0377
0.0356
0.0308
0.0238
0.0150
0.0052
-0.0048
-0.0143
-0.0223
-0.0283
-0.0319
-0.0287
-0.0227
-0.0147
-0.0053
0.0049
0.0148
0.0237
0.0308
0.0357
0.0377
0.0368
0.0330
0.0266
0.0179
0.0077
-0.0033
-0.0143
-0.0246
-0.0333
-0.0398
-0.0437
-0.0446
-0.0425
-0.0376
-0.0300
-0.0202
-0.0090
0.0031
0.0153
0.0269
0.0371
0.0454
0.0512
0.0542
0.0543
0.0514
0.0457
0.0375
0.0271
0.0151
0.0021
-0.0113
-0.0245
-0.0369
-0.0479
-0.0571
-0.0640
-0.0685
-0.0703
-0.0695
-0.0659
-0.0599
-0.0516
-0.0414
-0.0295
-0.0165
-0.0028
0.0113
0.0254
0.0389
0.0517
0.0633
0.0735
0.0822
0.0891
0.0942
0.0975
0.0989
0.0985
0.0964
0.0927
0.0876
0.0812
0.0737
0.0653
0.0561
0.0464
0.0363
0.0260
0.0156
0.0052
-0.0049
-0.0148
-0.0243
-0.0334
-0.0420
-0.0501
-0.0576
-0.0645
-0.0708
-0.0765
-0.0817
-0.0862
-0.0902
-0.0936
-0.0964
-0.0987
-0.1005
-0.1017
-0.1025
-0.1027
-0.1025
-0.1017
-0.1005
-0.0987
-0.0964
-0.0936
-0.0902
-0.0862
-0.0817
-0.0765
-0.0708
-0.0645
-0.0576
-0.0501
-0.0420
-0.0334
-0.0243
-0.0148
-0.0049
0.0052
0.0156
0.0260
0.0363
0.0464
0.0561
0.0653
0.0737
0.0812
0.0876
0.0927
0.0964
0.0985
0.0989
0.0975
0.0942
0.0891
0.0822
0.0735
0.0633
0.0517
0.0389
0.0254
0.0113
-0.0028
-0.0165
-0.0295
-0.0414
-0.0516
-0.0599
-0.0659
-0.0695
-0.0703
-0.0685
-0.0640
-0.0571
-0.0479
-0.0369
-0.0245
-0.0113
0.0021
0.0151
0.0271
0.0375
0.0457
0.0514
0.0543
0.0542
0.0512
0.0454
0.0371
0.0269
0.0153
0.0031
-0.0090
-0.0202
-0.0300
-0.0376
-0.0425
-0.0446
-0.0437
-0.0398
-0.0333
-0.0246
-0.0143
-0.0033
0.0077
0.0179
0.0266
0.0330
0.0368
0.0377
0.0357
0.0308
0.0237
0.0148
0.0049
-0.0053
-0.0147
-0.0227
-0.0287
-0.0233
-0.0153
-0.0059
0.0043
0.0144
0.0234
0.0307
0.0356
0.0377
0.0368
0.0329
0.0263
0.0175
0.0071
-0.0041
-0.0152
-0.0255
-0.0341
-0.0404
-0.0440
-0.0445
-0.0419
-0.0364
-0.0282
-0.0179
-0.0062
0.0062
0.0185
0.0299
0.0398
0.0475
0.0525
0.0546
0.0536
0.0495
0.0425
0.0331
0.0217
0.0088
-0.0048
-0.0185
-0.0317
-0.0437
-0.0539
-0.0619
-0.0674
-0.0701
-0.0699
-0.0669
-0.0611
-0.0528
-0.0424
-0.0302
-0.0167
-0.0023
0.0125
0.0272
0.0413
0.0545
0.0665
0.0768
0.0853
0.0918
0.0963
0.0986
0.0988
0.0969
0.0931
0.0876
0.0804
0.0719
0.0621
0.0515
0.0400
0.0281
0.0158
0.0034
-0.0089
-0.0211
-0.0329
-0.0443
-0.0551
-0.0653
-0.0749
-0.0838
-0.0920
-0.0995
-0.1062
-0.1123
-0.1177
-0.1225
-0.1267
-0.1303
-0.1333
-0.1359
-0.1381
-0.1398
-0.1410
-0.1419
-0.1425
-0.1427
-0.1425
-0.1419
-0.1410
-0.1398
-0.1381
-0.1359
-0.1333
-0.1303
-0.1267
-0.1225
-0.1177
-0.1123
-0.1062
-0.0995
-0.0920
-0.0838
-0.0749
-0.0653
-0.0551
-0.0443
-0.0329
-0.0211
-0.0089
0.0034
0.0158
0.0281
0.0400
0.0515
0.0621
0.0719
0.0804
0.0876
0.0931
0.0969
0.0988
0.0986
0.0963
0.0918
0.0853
0.0768
0.0665
0.0545
0.0413
0.0272
0.0125
-0.0023
-0.0167
-0.0302
-0.0424
-0.0528
-0.0611
-0.0669
-0.0699
-0.0701
-0.0674
-0.0619
-0.0539
-0.0437
-0.0317
-0.0185
-0.0048
0.0088
0.0217
0.0331
0.0425
0.0495
0.0536
0.0546
0.0525
0.0475
0.0398
0.0299
0.0185
0.0062
-0.0062
-0.0179
-0.0282
-0.0364
-0.0419
-0.0445
-0.0440
-0.0404
-0.0341
-0.0255
-0.0152
-0.0041
0.0071
0.0175
0.0263
0.0329
0.0368
0.0377
0.0356
0.0307
0.0234
0.0144
0.0043
-0.0059
-0.0153
-0.0233
-0.0161
-0.0067
0.0036
0.0138
0.0230
0.0305
0.0355
0.0377
0.0368
0.0329
0.0262
0.0173
0.0067
-0.0046
-0.0159
-0.0262
-0.0347
-0.0409
-0.0442
-0.0443
-0.0413
-0.0353
-0.0266
-0.0159
-0.0038
0.0089
0.0213
0.0326
0.0421
0.0492
0.0535
0.0546
0.0525
0.0473
0.0392
0.0286
0.0163
0.0027
-0.0114
-0.0253
-0.0382
-0.0496
-0.0589
-0.0656
-0.0695
-0.0703
-0.0681
-0.0629
-0.0549
-0.0446
-0.0322
-0.0183
-0.0034
0.0120
0.0273
0.0421
0.0559
0.0682
0.0788
0.0873
0.0935
0.0974
0.0989
0.0980
0.0948
0.0895
0.0822
0.0731
0.0625
0.0507
0.0378
0.0243
0.0103
-0.0039
-0.0181
-0.0320
-0.0456
-0.0587
-0.0711
-0.0827
-0.0936
-0.1035
-0.1125
-0.1207
-0.1279
-0.1344
-0.1399
-0.1448
-0.1489
-0.1523
-0.1552
-0.1576
-0.1595
-0.1611
-0.1623
-0.1632
-0.1639
-0.1644
-0.1647
-0.1649
-0.1650
-0.1649
-0.1647
-0.1644
-0.1639
-0.1632
-0.1623
-0.1611
-0.1595
-0.1576
-0.1552
-0.1523
-0.1489
-0.1448
-0.1399
-0.1344
-0.1279
-0.1207
-0.1125
-0.1035
-0.0936
-0.0827
-0.0711
-0.0587
-0.0456
-0.0320
-0.0181
-0.0039
0.0103
0.0243
0.0378
0.0507
0.0625
0.0731
0.0822
0.0895
0.0948
0.0980
0.0989
0.0974
0.0935
0.0873
0.0788
0.0682
0.0559
0.0421
0.0273
0.0120
-0.0034
-0.0183
-0.0322
-0.0446
-0.0549
-0.0629
-0.0681
-0.0703
-0.0695
-0.0656
-0.0589
-0.0496
-0.0382
-0.0253
-0.0114
0.0027
0.0163
0.0286
0.0392
0.0473
0.0525
0.0546
0.0535
0.0492
0.0421
0.0326
0.0213
0.0089
-0.0038
-0.0159
-0.0266
-0.0353
-0.0413
-0.0443
-0.0442
-0.0409
-0.0347
-0.0262
-0.0159
-0.0046
0.0067
0.0173
0.0262
0.0329
0.0368
0.0377
0.0355
0.0305
0.0230
0.0138
0.0036
-0.0067
-0.0161
-0.0077
0.0026
0.0129
0.0224
0.0300
0.0353
0.0377
0.0369
0.0330
0.0263
0.0173
0.0066
-0.0049
-0.0162
-0.0266
-0.0352
-0.0412
-0.0443
-0.0442
-0.0408
-0.0343
-0.0252
-0.0140
-0.0016
0.0112
0.0237
0.0348
0.0440
0.0506
0.0541
0.0543
0.0512
0.0449
0.0357
0.0242
0.0111
-0.0031
-0.0175
-0.0314
-0.0440
-0.0546
-0.0628
-0.0681
-0.0703
-0.0693
-0.0650
-0.0577
-0.0477
-0.0355
-0.0214
-0.0061
0.0099
0.0258
0.0413
0.0557
0.0686
0.0796
0.0882
0.0944
0.0980
0.0989
0.0971
0.0928
0.0860
0.0771
0.0663
0.0538
0.0400
0.0253
0.0098
-0.0060
-0.0219
-0.0376
-0.0529
-0.0675
-0.0814
-0.0943
-0.1062
-0.1170
-0.1267
-0.1351
-0.1425
-0.1487
-0.1539
-0.1581
-0.1614
-0.1638
-0.1656
-0.1667
-0.1673
-0.1674
-0.1672
-0.1668
-0.1663
-0.1656
-0.1649
-0.1643
-0.1637
-0.1633
-0.1631
-0.1630
-0.1631
-0.1633
-0.1637
-0.1643
-0.1649
-0.1656
-0.1663
-0.1668
-0.1672
-0.1674
-0.1673
-0.1667
-0.1656
-0.1638
-0.1614
-0.1581
-0.1539
-0.1487
-0.1425
-0.1351
-0.1267
-0.1170
-0.1062
-0.0943
-0.0814
-0.0675
-0.0529
-0.0376
-0.0219
-0.0060
0.0098
0.0253
0.0400
0.0538
0.0663
0.0771
0.0860
0.0928
0.0971
0.0989
0.0980
0.0944
0.0882
0.0796
0.0686
0.0557
0.0413
0.0258
0.0099
-0.0061
-0.0214
-0.0355
-0.0477
-0.0577
-0.0650
-0.0693
-0.0703
-0.0681
-0.0628
-0.0546
-0.0440
-0.0314
-0.0175
-0.0031
0.0111
0.0242
0.0357
0.0449
0.0512
0.0543
0.0541
0.0506
0.0440
0.0348
0.0237
0.0112
-0.0016
-0.0140
-0.0252
-0.0343
-0.0408
-0.0442
-0.0443
-0.0412
-0.0352
-0.0266
-0.0162
-0.0049
0.0066
0.0173
0.0263
0.0330
0.0369
0.0377
0.0353
0.0300
0.0224
0.0129
0.0026
-0.0077
0.0015
0.0119
0.0215
0.0295
0.0350
0.0376
0.0370
0.0333
0.0266
0.0175
0.0067
-0.0049
-0.0164
-0.0268
-0.0354
-0.0415
-0.0444
-0.0441
-0.0403
-0.0335
-0.0240
-0.0125
0.0002
0.0132
0.0257
0.0368
0.0456
0.0517
0.0545
0.0538
0.0498
0.0425
0.0324
0.0200
0.0061
-0.0086
-0.0232
-0.0369
-0.0490
-0.0588
-0.0658
-0.0697
-0.0702
-0.0672
-0.0610
-0.0517
-0.0398
-0.0258
-0.0103
0.0061
0.0227
0.0389
0.0541
0.0677
0.0792
0.0883
0.0947
0.0982
0.0988
0.0964
0.0911
0.0832
0.0729
0.0605
0.0464
0.0309
0.0143
-0.0028
-0.0202
-0.0376
-0.0545
-0.0708
-0.0862
-0.1005
-0.1135
-0.1251
-0.1353
-0.1441
-0.1513
-0.1571
-0.1615
-0.1647
-0.1666
-0.1674
-0.1672
-0.1662
-0.1645
-0.1622
-0.1595
-0.1565
-0.1533
-0.1501
-0.1469
-0.1438
-0.1409
-0.1384
-0.1362
-0.1345
-0.1332
-0.1324
-0.1322
-0.1324
-0.1332
-0.1345
-0.1362
-0.1384
-0.1409
-0.1438
-0.1469
-0.1501
-0.1533
-0.1565
-0.1595
-0.1622
-0.1645
-0.1662
-0.1672
-0.1674
-0.1666
-0.1647
-0.1615
-0.1571
-0.1513
-0.1441
-0.1353
-0.1251
-0.1135
-0.1005
-0.0862
-0.0708
-0.0545
-0.0376
-0.0202
-0.0028
0.0143
0.0309
0.0464
0.0605
0.0729
0.0832
0.0911
0.0964
0.0988
0.0982
0.0947
0.0883
0.0792
0.0677
0.0541
0.0389
0.0227
0.0061
-0.0103
-0.0258
-0.0398
-0.0517
-0.0610
-0.0672
-0.0702
-0.0697
-0.0658
-0.0588
-0.0490
-0.0369
-0.0232
-0.0086
0.0061
0.0200
0.0324
0.0425
0.0498
0.0538
0.0545
0.0517
0.0456
0.0368
0.0257
0.0132
0.0002
-0.0125
-0.0240
-0.0335
-0.0403
-0.0441
-0.0444
-0.0415
-0.0354
-0.0268
-0.0164
-0.0049
0.0067
0.0175
0.0266
0.0333
0.0370
0.0376
0.0350
0.0295
0.0215
0.0119
0.0015
0.0107
0.0205
0.0288
0.0346
0.0375
0.0372
0.0336
0.0270
0.0179
0.0071
-0.0046
-0.0162
-0.0268
-0.0355
-0.0416
-0.0445
-0.0439
-0.0400
-0.0329
-0.0231
-0.0113
0.0017
0.0149
0.0274
0.0383
0.0469
0.0525
0.0546
0.0532
0.0483
0.0401
0.0291
0.0160
0.0015
-0.0136
-0.0282
-0.0417
-0.0533
-0.0622
-0.0680
-0.0703
-0.0691
-0.0643
-0.0562
-0.0450
-0.0314
-0.0159
0.0007
0.0179
0.0349
0.0509
0.0654
0.0777
0.0875
0.0944
0.0982
0.0988
0.0960
0.0902
0.0814
0.0700
0.0563
0.0407
0.0236
0.0055
-0.0132
-0.0320
-0.0506
-0.0686
-0.0857
-0.1015
-0.1158
-0.1286
-0.1396
-0.1487
-0.1560
-0.1615
-0.1651
-0.1670
-0.1674
-0.1662
-0.1637
-0.1601
-0.1555
-0.1501
-0.1440
-0.1375
-0.1306
-0.1236
-0.1166
-0.1097
-0.1032
-0.0970
-0.0912
-0.0861
-0.0816
-0.0779
-0.0749
-0.0727
-0.0714
-0.0710
-0.0714
-0.0727
-0.0749
-0.0779
-0.0816
-0.0861
-0.0912
-0.0970
-0.1032
-0.1097
-0.1166
-0.1236
-0.1306
-0.1375
-0.1440
-0.1501
-0.1555
-0.1601
-0.1637
-0.1662
-0.1674
-0.1670
-0.1651
-0.1615
-0.1560
-0.1487
-0.1396
-0.1286
-0.1158
-0.1015
-0.0857
-0.0686
-0.0506
-0.0320
-0.0132
0.0055
0.0236
0.0407
0.0563
0.0700
0.0814
0.0902
0.0960
0.0988
0.0982
0.0944
0.0875
0.0777
0.0654
0.0509
0.0349
0.0179
0.0007
-0.0159
-0.0314
-0.0450
-0.0562
-0.0643
-0.0691
-0.0703
-0.0680
-0.0622
-0.0533
-0.0417
-0.0282
-0.0136
0.0015
0.0160
0.0291
0.0401
0.0483
0.0532
0.0546
0.0525
0.0469
0.0383
0.0274
0.0149
0.0017
-0.0113
-0.0231
-0.0329
-0.0400
-0.0439
-0.0445
-0.0416
-0.0355
-0.0268
-0.0162
-0.0046
0.0071
0.0179
0.0270
0.0336
0.0372
0.0375
0.0346
0.0288
0.0205
0.0107
0.0193
0.0279
0.0341
0.0374
0.0374
0.0340
0.0276
0.0186
0.0077
-0.0041
-0.0159
-0.0266
-0.0354
-0.0416
-0.0445
-0.0439
-0.0398
-0.0325
-0.0224
-0.0103
0.0029
0.0163
0.0288
0.0396
0.0479
0.0530
0.0546
0.0525
0.0468
0.0378
0.0260
0.0122
-0.0028
-0.0181
-0.0328
-0.0460
-0.0569
-0.0648
-0.0694
-0.0702
-0.0673
-0.0608
-0.0508
-0.0380
-0.0228
-0.0061
0.0115
0.0291
0.0461
0.0616
0.0750
0.0858
0.0935
0.0979
0.0988
0.0962
0.0901
0.0808
0.0686
0.0538
0.0370
0.0185
-0.0010
-0.0211
-0.0412
-0.0609
-0.0798
-0.0974
-0.1135
-0.1277
-0.1399
-0.1500
-0.1577
-0.1632
-0.1664
-0.1674
-0.1663
-0.1633
-0.1585
-0.1522
-0.1444
-0.1355
-0.1256
-0.1150
-0.1039
-0.0924
-0.0808
-0.0692
-0.0579
-0.0469
-0.0365
-0.0267
-0.0176
-0.0094
-0.0021
0.0042
0.0094
0.0135
0.0164
0.0182
0.0188
0.0182
0.0164
0.0135
0.0094
0.0042
-0.0021
-0.0094
-0.0176
-0.0267
-0.0365
-0.0469
-0.0579
-0.0692
-0.0808
-0.0924
-0.1039
-0.1150
-0.1256
-0.1355
-0.1444
-0.1522
-0.1585
-0.1633
-0.1663
-0.1674
-0.1664
-0.1632
-0.1577
-0.1500
-0.1399
-0.1277
-0.1135
-0.0974
-0.0798
-0.0609
-0.0412
-0.0211
-0.0010
0.0185
0.0370
0.0538
0.0686
0.0808
0.0901
0.0962
0.0988
0.0979
0.0935
0.0858
0.0750
0.0616
0.0461
0.0291
0.0115
-0.0061
-0.0228
-0.0380
-0.0508
-0.0608
-0.0673
-0.0702
-0.0694
-0.0648
-0.0569
-0.0460
-0.0328
-0.0181
-0.0028
0.0122
0.0260
0.0378
0.0468
0.0525
0.0546
0.0530
0.0479
0.0396
0.0288
0.0163
0.0029
-0.0103
-0.0224
-0.0325
-0.0398
-0.0439
-0.0445
-0.0416
-0.0354
-0.0266
-0.0159
-0.0041
0.0077
0.0186
0.0276
0.0340
0.0374
0.0374
0.0341
0.0279
0.0193
0.0268
0.0334
0.0371
0.0375
0.0345
0.0283
0.0194
0.0086
-0.0033
-0.0152
-0.0262
-0.0352
-0.0415
-0.0445
-0.0439
-0.0397
-0.0322
-0.0220
-0.0097
0.0037
0.0172
0.0299
0.0406
0.0487
0.0535
0.0546
0.0518
0.0454
0.0357
0.0232
0.0088
-0.0066
-0.0221
-0.0368
-0.0496
-0.0598
-0.0668
-0.0701
-0.0695
-0.0650
-0.0568
-0.0451
-0.0308
-0.0143
0.0035
0.0217
0.0396
0.0562
0.0708
0.0829
0.0918
0.0973
0.0989
0.0968
0.0909
0.0814
0.0687
0.0532
0.0354
0.0158
-0.0049
-0.0263
-0.0476
-0.0684
-0.0881
-0.1062
-0.1225
-0.1365
-0.1481
-0.1570
-0.1632
-0.1666
-0.1673
-0.1654
-0.1610
-0.1543
-0.1455
-0.1347
-0.1224
-0.1087
-0.0939
-0.0783
-0.0621
-0.0455
-0.0288
-0.0122
0.0042
0.0200
0.0352
0.0497
0.0633
0.0758
0.0873
0.0976
0.1066
0.1143
0.1207
0.1257
0.1293
0.1314
0.1322
0.1314
0.1293
0.1257
0.1207
0.1143
0.1066
0.0976
0.0873
0.0758
0.0633
0.0497
0.0352
0.0200
0.0042
-0.0122
-0.0288
-0.0455
-0.0621
-0.0783
-0.0939
-0.1087
-0.1224
-0.1347
-0.1455
-0.1543
-0.1610
-0.1654
-0.1673
-0.1666
-0.1632
-0.1570
-0.1481
-0.1365
-0.1225
-0.1062
-0.0881
-0.0684
-0.0476
-0.0263
-0.0049
0.0158
0.0354
0.0532
0.0687
0.0814
0.0909
0.0968
0.0989
0.0973
0.0918
0.0829
0.0708
0.0562
0.0396
0.0217
0.0035
-0.0143
-0.0308
-0.0451
-0.0568
-0.0650
-0.0695
-0.0701
-0.0668
-0.0598
-0.0496
-0.0368
-0.0221
-0.0066
0.0088
0.0232
0.0357
0.0454
0.0518
0.0546
0.0535
0.0487
0.0406
0.0299
0.0172
0.0037
-0.0097
-0.0220
-0.0322
-0.0397
-0.0439
-0.0445
-0.0415
-0.0352
-0.0262
-0.0152
-0.0033
0.0086
0.0194
0.0283
0.0345
0.0375
0.0371
0.0334
0.0268
0.0326
0.0368
0.0377
0.0351
0.0292
0.0205
0.0097
-0.0023
-0.0143
-0.0255
-0.0347
-0.0412
-0.0444
-0.0439
-0.0398
-0.0322
-0.0218
-0.0094
0.0042
0.0179
0.0306
0.0413
0.0493
0.0538
0.0544
0.0512
0.0441
0.0338
0.0207
0.0058
-0.0100
-0.0257
-0.0402
-0.0527
-0.0622
-0.0683
-0.0704
-0.0684
-0.0623
-0.0525
-0.0393
-0.0236
-0.0059
0.0126
0.0313
0.0490
0.0651
0.0787
0.0891
0.0959
0.0988
0.0977
0.0924
0.0832
0.0705
0.0546
0.0361
0.0156
-0.0063
-0.0287
-0.0512
-0.0730
-0.0936
-0.1123
-0.1288
-0.1427
-0.1536
-0.1615
-0.1661
-0.1674
-0.1655
-0.1606
-0.1527
-0.1421
-0.1290
-0.1137
-0.0966
-0.0779
-0.0579
-0.0370
-0.0155
0.0065
0.0285
0.0503
0.0718
0.0927
0.1129
0.1322
0.1504
0.1674
0.1832
0.1977
0.2108
0.2224
0.2326
0.2412
0.2483
0.2538
0.2578
0.2602
0.2610
0.2602
0.2578
0.2538
0.2483
0.2412
0.2326
0.2224
0.2108
0.1977
0.1832
0.1674
0.1504
0.1322
0.1129
0.0927
0.0718
0.0503
0.0285
0.0065
-0.0155
-0.0370
-0.0579
-0.0779
-0.0966
-0.1137
-0.1290
-0.1421
-0.1527
-0.1606
-0.1655
-0.1674
-0.1661
-0.1615
-0.1536
-0.1427
-0.1288
-0.1123
-0.0936
-0.0730
-0.0512
-0.0287
-0.0063
0.0156
0.0361
0.0546
0.0705
0.0832
0.0924
0.0977
0.0988
0.0959
0.0891
0.0787
0.0651
0.0490
0.0313
0.0126
-0.0059
-0.0236
-0.0393
-0.0525
-0.0623
-0.0684
-0.0704
-0.0683
-0.0622
-0.0527
-0.0402
-0.0257
-0.0100
0.0058
0.0207
0.0338
0.0441
0.0512
0.0544
0.0538
0.0493
0.0413
0.0306
0.0179
0.0042
-0.0094
-0.0218
-0.0322
-0.0398
-0.0439
-0.0444
-0.0412
-0.0347
-0.0255
-0.0143
-0.0023
0.0097
0.0205
0.0292
0.0351
0.0377
0.0368
0.0326
0.0363
0.0378
0.0357
0.0302
0.0217
0.0110
-0.0009
-0.0132
-0.0246
-0.0341
-0.0409
-0.0443
-0.0441
-0.0400
-0.0325
-0.0220
-0.0094
0.0044
0.0182
0.0310
0.0418
0.0497
0.0540
0.0543
0.0506
0.0430
0.0321
0.0185
0.0031
-0.0130
-0.0288
-0.0432
-0.0553
-0.0641
-0.0693
-0.0702
-0.0669
-0.0594
-0.0481
-0.0335
-0.0165
0.0020
0.0212
0.0400
0.0575
0.0728
0.0850
0.0937
0.0982
0.0985
0.0944
0.0860
0.0737
0.0578
0.0389
0.0178
-0.0049
-0.0285
-0.0520
-0.0749
-0.0964
-0.1158
-0.1327
-0.1466
-0.1571
-0.1640
-0.1672
-0.1666
-0.1622
-0.1543
-0.1429
-0.1284
-0.1111
-0.0912
-0.0692
-0.0455
-0.0203
0.0059
0.0328
0.0600
0.0873
0.1143
0.1409
0.1667
0.1916
0.2154
0.2381
0.2594
0.2793
0.2977