# vtk DataFile Version 1.0
2D Sin graph datase
ASCII

DATASET STRUCTURED_POINTS
DIMENSIONS 201 201 1
ORIGIN 0 0 0
SPACING 0.05 0.05 0.05

POINT_DATA 40401

SCALARS scalars float
LOOKUP_TABLE default
-0.0166
-0.0235
-0.0286
-0.0316
-0.0322
-0.0304
-0.0262
-0.0199
-0.0120
-0.0032
0.0061
0.0151
0.0233
0.0299
0.0346
0.0370
0.0370
0.0345
0.0297
0.0229
0.0145
0.0051
-0.0049
-0.0147
-0.0238
-0.0317
-0.0380
-0.0421
-0.0440
-0.0435
-0.0407
-0.0356
-0.0286
-0.0201
-0.0104
0.0000
0.0106
0.0208
0.0303
0.0386
0.0453
0.0502
0.0531
0.0539
0.0526
0.0493
0.0440
0.0371
0.0288
0.0194
0.0092
-0.0014
-0.0120
-0.0225
-0.0324
-0.0415
-0.0495
-0.0563
-0.0618
-0.0659
-0.0684
-0.0695
-0.0690
-0.0672
-0.0641
-0.0598
-0.0545
-0.0482
-0.0413
-0.0337
-0.0257
-0.0175
-0.0090
-0.0006
0.0077
0.0159
0.0237
0.0312
0.0383
0.0450
0.0512
0.0568
0.0620
0.0667
0.0709
0.0747
0.0780
0.0808
0.0833
0.0855
0.0873
0.0888
0.0901
0.0912
0.0920
0.0927
0.0932
0.0936
0.0939
0.0940
0.0941
0.0940
0.0939
0.0936
0.0932
0.0927
0.0920
0.0912
0.0901
0.0888
0.0873
0.0855
0.0833
0.0808
0.0780
0.0747
0.0709
0.0667
0.0620
0.0568
0.0512
0.0450
0.0383
0.0312
0.0237
0.0159
0.0077
-0.0006
-0.0090
-0.0175
-0.0257
-0.0337
-0.0413
-0.0482
-0.0545
-0.0598
-0.0641
-0.0672
-0.0690
-0.0695
-0.0684
-0.0659
-0.0618
-0.0563
-0.0495
-0.0415
-0.0324
-0.0225
-0.0120
-0.0014
0.0092
0.0194
0.0288
0.0371
0.0440
0.0493
0.0526
0.0539
0.0531
0.0502
0.0453
0.0386
0.0303
0.0208
0.0106
0.0000
-0.0104
-0.0201
-0.0286
-0.0356
-0.0407
-0.0435
-0.0440
-0.0421
-0.0380
-0.0317
-0.0238
-0.0147
-0.0049
0.0051
0.0145
0.0229
0.0297
0.0345
0.0370
0.0370
0.0346
0.0299
0.0233
0.0151
0.0061
-0.0032
-0.0120
-0.0199
-0.0262
-0.0304
-0.0322
-0.0316
-0.0286
-0.0235
-0.0166
-0.0235
-0.0287
-0.0317
-0.0322
-0.0302
-0.0259
-0.0194
-0.0114
-0.0023
0.0071
0.0161
0.0242
0.0307
0.0351
0.0372
0.0367
0.0337
0.0284
0.0212
0.0123
0.0026
-0.0076
-0.0174
-0.0264
-0.0339
-0.0396
-0.0431
-0.0441
-0.0427
-0.0388
-0.0328
-0.0249
-0.0155
-0.0052
0.0056
0.0163
0.0264
0.0354
0.0430
0.0488
0.0524
0.0539
0.0532
0.0502
0.0452
0.0383
0.0299
0.0203
0.0098
-0.0013
-0.0124
-0.0232
-0.0335
-0.0429
-0.0511
-0.0580
-0.0633
-0.0670
-0.0690
-0.0694
-0.0682
-0.0654
-0.0611
-0.0557
-0.0490
-0.0415
-0.0332
-0.0244
-0.0151
-0.0057
0.0038
0.0131
0.0223
0.0311
0.0394
0.0473
0.0545
0.0612
0.0672
0.0726
0.0774
0.0816
0.0851
0.0881
0.0906
0.0926
0.0942
0.0955
0.0964
0.0970
0.0974
0.0976
0.0977
0.0976
0.0975
0.0974
0.0972
0.0971
0.0970
0.0969
0.0969
0.0969
0.0970
0.0971
0.0972
0.0974
0.0975
0.0976
0.0977
0.0976
0.0974
0.0970
0.0964
0.0955
0.0942
0.0926
0.0906
0.0881
0.0851
0.0816
0.0774
0.0726
0.0672
0.0612
0.0545
0.0473
0.0394
0.0311
0.0223
0.0131
0.0038
-0.0057
-0.0151
-0.0244
-0.0332
-0.0415
-0.0490
-0.0557
-0.0611
-0.0654
-0.0682
-0.0694
-0.0690
-0.0670
-0.0633
-0.0580
-0.0511
-0.0429
-0.0335
-0.0232
-0.0124
-0.0013
0.0098
0.0203
0.0299
0.0383
0.0452
0.0502
0.0532
0.0539
0.0524
0.0488
0.0430
0.0354
0.0264
0.0163
0.0056
-0.0052
-0.0155
-0.0249
-0.0328
-0.0388
-0.0427
-0.0441
-0.0431
-0.0396
-0.0339
-0.0264
-0.0174
-0.0076
0.0026
0.0123
0.0212
0.0284
0.0337
0.0367
0.0372
0.0351
0.0307
0.0242
0.0161
0.0071
-0.0023
-0.0114
-0.0194
-0.0259
-0.0302
-0.0322
-0.0317
-0.0287
-0.0235
-0.0286
-0.0317
-0.0322
-0.0302
-0.0257
-0.0191
-0.0109
-0.0017
0.0078
0.0169
0.0249
0.0313
0.0355
0.0373
0.0364
0.0330
0.0273
0.0195
0.0103
0.0003
-0.0100
-0.0198
-0.0286
-0.0358
-0.0409
-0.0437
-0.0439
-0.0415
-0.0368
-0.0298
-0.0211
-0.0111
-0.0002
0.0108
0.0215
0.0314
0.0399
0.0466
0.0513
0.0536
0.0537
0.0513
0.0468
0.0402
0.0318
0.0221
0.0113
-0.0001
-0.0116
-0.0229
-0.0336
-0.0434
-0.0518
-0.0588
-0.0641
-0.0677
-0.0693
-0.0692
-0.0672
-0.0635
-0.0583
-0.0517
-0.0440
-0.0352
-0.0257
-0.0157
-0.0054
0.0050
0.0154
0.0255
0.0352
0.0444
0.0529
0.0608
0.0679
0.0742
0.0797
0.0844
0.0883
0.0914
0.0939
0.0957
0.0969
0.0975
0.0977
0.0974
0.0969
0.0960
0.0950
0.0938
0.0925
0.0912
0.0899
0.0886
0.0875
0.0864
0.0855
0.0848
0.0843
0.0840
0.0839
0.0840
0.0843
0.0848
0.0855
0.0864
0.0875
0.0886
0.0899
0.0912
0.0925
0.0938
0.0950
0.0960
0.0969
0.0974
0.0977
0.0975
0.0969
0.0957
0.0939
0.0914
0.0883
0.0844
0.0797
0.0742
0.0679
0.0608
0.0529
0.0444
0.0352
0.0255
0.0154
0.0050
-0.0054
-0.0157
-0.0257
-0.0352
-0.0440
-0.0517
-0.0583
-0.0635
-0.0672
-0.0692
-0.0693
-0.0677
-0.0641
-0.0588
-0.0518
-0.0434
-0.0336
-0.0229
-0.0116
-0.0001
0.0113
0.0221
0.0318
0.0402
0.0468
0.0513
0.0537
0.0536
0.0513
0.0466
0.0399
0.0314
0.0215
0.0108
-0.0002
-0.0111
-0.0211
-0.0298
-0.0368
-0.0415
-0.0439
-0.0437
-0.0409
-0.0358
-0.0286
-0.0198
-0.0100
0.0003
0.0103
0.0195
0.0273
0.0330
0.0364
0.0373
0.0355
0.0313
0.0249
0.0169
0.0078
-0.0017
-0.0109
-0.0191
-0.0257
-0.0302
-0.0322
-0.0317
-0.0286
-0.0316
-0.0322
-0.0302
-0.0256
-0.0190
-0.0107
-0.0013
0.0083
0.0175
0.0255
0.0318
0.0358
0.0373
0.0361
0.0323
0.0262
0.0181
0.0085
-0.0017
-0.0121
-0.0220
-0.0305
-0.0373
-0.0419
-0.0440
-0.0434
-0.0402
-0.0346
-0.0268
-0.0173
-0.0067
0.0045
0.0157
0.0263
0.0358
0.0436
0.0494
0.0529
0.0539
0.0525
0.0486
0.0425
0.0344
0.0247
0.0139
0.0022
-0.0097
-0.0215
-0.0327
-0.0429
-0.0518
-0.0590
-0.0645
-0.0680
-0.0694
-0.0689
-0.0663
-0.0620
-0.0559
-0.0483
-0.0395
-0.0297
-0.0192
-0.0081
0.0031
0.0144
0.0255
0.0361
0.0462
0.0556
0.0641
0.0717
0.0783
0.0839
0.0885
0.0922
0.0948
0.0966
0.0975
0.0976
0.0971
0.0959
0.0942
0.0921
0.0896
0.0869
0.0840
0.0809
0.0779
0.0748
0.0718
0.0690
0.0663
0.0639
0.0617
0.0598
0.0582
0.0569
0.0560
0.0555
0.0553
0.0555
0.0560
0.0569
0.0582
0.0598
0.0617
0.0639
0.0663
0.0690
0.0718
0.0748
0.0779
0.0809
0.0840
0.0869
0.0896
0.0921
0.0942
0.0959
0.0971
0.0976
0.0975
0.0966
0.0948
0.0922
0.0885
0.0839
0.0783
0.0717
0.0641
0.0556
0.0462
0.0361
0.0255
0.0144
0.0031
-0.0081
-0.0192
-0.0297
-0.0395
-0.0483
-0.0559
-0.0620
-0.0663
-0.0689
-0.0694
-0.0680
-0.0645
-0.0590
-0.0518
-0.0429
-0.0327
-0.0215
-0.0097
0.0022
0.0139
0.0247
0.0344
0.0425
0.0486
0.0525
0.0539
0.0529
0.0494
0.0436
0.0358
0.0263
0.0157
0.0045
-0.0067
-0.0173
-0.0268
-0.0346
-0.0402
-0.0434
-0.0440
-0.0419
-0.0373
-0.0305
-0.0220
-0.0121
-0.0017
0.0085
0.0181
0.0262
0.0323
0.0361
0.0373
0.0358
0.0318
0.0255
0.0175
0.0083
-0.0013
-0.0107
-0.0190
-0.0256
-0.0302
-0.0322
-0.0316
-0.0322
-0.0302
-0.0257
-0.0190
-0.0106
-0.0011
0.0086
0.0178
0.0259
0.0321
0.0360
0.0373
0.0358
0.0317
0.0252
0.0168
0.0070
-0.0035
-0.0140
-0.0238
-0.0322
-0.0386
-0.0427
-0.0441
-0.0428
-0.0388
-0.0323
-0.0238
-0.0137
-0.0026
0.0090
0.0202
0.0306
0.0396
0.0466
0.0515
0.0538
0.0535
0.0505
0.0452
0.0376
0.0282
0.0174
0.0055
-0.0067
-0.0190
-0.0307
-0.0415
-0.0509
-0.0586
-0.0643
-0.0680
-0.0695
-0.0687
-0.0658
-0.0609
-0.0541
-0.0458
-0.0361
-0.0253
-0.0138
-0.0019
0.0103
0.0223
0.0339
0.0450
0.0553
0.0646
0.0729
0.0800
0.0859
0.0906
0.0941
0.0964
0.0975
0.0976
0.0967
0.0948
0.0923
0.0890
0.0851
0.0808
0.0761
0.0712
0.0661
0.0610
0.0558
0.0508
0.0459
0.0412
0.0367
0.0326
0.0288
0.0254
0.0224
0.0198
0.0177
0.0160
0.0148
0.0141
0.0139
0.0141
0.0148
0.0160
0.0177
0.0198
0.0224
0.0254
0.0288
0.0326
0.0367
0.0412
0.0459
0.0508
0.0558
0.0610
0.0661
0.0712
0.0761
0.0808
0.0851
0.0890
0.0923
0.0948
0.0967
0.0976
0.0975
0.0964
0.0941
0.0906
0.0859
0.0800
0.0729
0.0646
0.0553
0.0450
0.0339
0.0223
0.0103
-0.0019
-0.0138
-0.0253
-0.0361
-0.0458
-0.0541
-0.0609
-0.0658
-0.0687
-0.0695
-0.0680
-0.0643
-0.0586
-0.0509
-0.0415
-0.0307
-0.0190
-0.0067
0.0055
0.0174
0.0282
0.0376
0.0452
0.0505
0.0535
0.0538
0.0515
0.0466
0.0396
0.0306
0.0202
0.0090
-0.0026
-0.0137
-0.0238
-0.0323
-0.0388
-0.0428
-0.0441
-0.0427
-0.0386
-0.0322
-0.0238
-0.0140
-0.0035
0.0070
0.0168
0.0252
0.0317
0.0358
0.0373
0.0360
0.0321
0.0259
0.0178
0.0086
-0.0011
-0.0106
-0.0190
-0.0257
-0.0302
-0.0322
-0.0304
-0.0259
-0.0191
-0.0107
-0.0011
0.0087
0.0180
0.0261
0.0323
0.0362
0.0373
0.0356
0.0312
0.0244
0.0157
0.0056
-0.0051
-0.0156
-0.0254
-0.0335
-0.0396
-0.0432
-0.0440
-0.0420
-0.0373
-0.0301
-0.0209
-0.0102
0.0013
0.0130
0.0243
0.0344
0.0428
0.0491
0.0528
0.0539
0.0523
0.0480
0.0412
0.0323
0.0217
0.0099
-0.0027
-0.0154
-0.0276
-0.0390
-0.0491
-0.0574
-0.0637
-0.0677
-0.0694
-0.0687
-0.0657
-0.0604
-0.0532
-0.0442
-0.0337
-0.0221
-0.0098
0.0030
0.0159
0.0285
0.0407
0.0521
0.0624
0.0717
0.0796
0.0861
0.0912
0.0948
0.0969
0.0977
0.0971
0.0953
0.0923
0.0884
0.0835
0.0780
0.0718
0.0652
0.0582
0.0510
0.0436
0.0363
0.0290
0.0219
0.0151
0.0085
0.0023
-0.0036
-0.0090
-0.0139
-0.0184
-0.0223
-0.0258
-0.0287
-0.0311
-0.0330
-0.0344
-0.0352
-0.0354
-0.0352
-0.0344
-0.0330
-0.0311
-0.0287
-0.0258
-0.0223
-0.0184
-0.0139
-0.0090
-0.0036
0.0023
0.0085
0.0151
0.0219
0.0290
0.0363
0.0436
0.0510
0.0582
0.0652
0.0718
0.0780
0.0835
0.0884
0.0923
0.0953
0.0971
0.0977
0.0969
0.0948
0.0912
0.0861
0.0796
0.0717
0.0624
0.0521
0.0407
0.0285
0.0159
0.0030
-0.0098
-0.0221
-0.0337
-0.0442
-0.0532
-0.0604
-0.0657
-0.0687
-0.0694
-0.0677
-0.0637
-0.0574
-0.0491
-0.0390
-0.0276
-0.0154
-0.0027
0.0099
0.0217
0.0323
0.0412
0.0480
0.0523
0.0539
0.0528
0.0491
0.0428
0.0344
0.0243
0.0130
0.0013
-0.0102
-0.0209
-0.0301
-0.0373
-0.0420
-0.0440
-0.0432
-0.0396
-0.0335
-0.0254
-0.0156
-0.0051
0.0056
0.0157
0.0244
0.0312
0.0356
0.0373
0.0362
0.0323
0.0261
0.0180
0.0087
-0.0011
-0.0107
-0.0191
-0.0259
-0.0304
-0.0262
-0.0194
-0.0109
-0.0013
0.0086
0.0180
0.0262
0.0324
0.0362
0.0373
0.0354
0.0308
0.0238
0.0148
0.0045
-0.0064
-0.0170
-0.0267
-0.0347
-0.0405
-0.0436
-0.0439
-0.0412
-0.0358
-0.0279
-0.0181
-0.0069
0.0049
0.0168
0.0279
0.0377
0.0455
0.0509
0.0536
0.0535
0.0506
0.0449
0.0368
0.0267
0.0151
0.0024
-0.0106
-0.0235
-0.0355
-0.0464
-0.0555
-0.0625
-0.0672
-0.0693
-0.0689
-0.0660
-0.0606
-0.0531
-0.0436
-0.0326
-0.0203
-0.0072
0.0063
0.0199
0.0331
0.0458
0.0574
0.0679
0.0770
0.0845
0.0903
0.0945
0.0969
0.0977
0.0968
0.0944
0.0906
0.0855
0.0794
0.0722
0.0643
0.0558
0.0469
0.0376
0.0281
0.0186
0.0092
-0.0000
-0.0090
-0.0176
-0.0258
-0.0336
-0.0408
-0.0476
-0.0538
-0.0594
-0.0645
-0.0690
-0.0730
-0.0764
-0.0793
-0.0816
-0.0834
-0.0847
-0.0855
-0.0858
-0.0855
-0.0847
-0.0834
-0.0816
-0.0793
-0.0764
-0.0730
-0.0690
-0.0645
-0.0594
-0.0538
-0.0476
-0.0408
-0.0336
-0.0258
-0.0176
-0.0090
-0.0000
0.0092
0.0186
0.0281
0.0376
0.0469
0.0558
0.0643
0.0722
0.0794
0.0855
0.0906
0.0944
0.0968
0.0977
0.0969
0.0945
0.0903
0.0845
0.0770
0.0679
0.0574
0.0458
0.0331
0.0199
0.0063
-0.0072
-0.0203
-0.0326
-0.0436
-0.0531
-0.0606
-0.0660
-0.0689
-0.0693
-0.0672
-0.0625
-0.0555
-0.0464
-0.0355
-0.0235
-0.0106
0.0024
0.0151
0.0267
0.0368
0.0449
0.0506
0.0535
0.0536
0.0509
0.0455
0.0377
0.0279
0.0168
0.0049
-0.0069
-0.0181
-0.0279
-0.0358
-0.0412
-0.0439
-0.0436
-0.0405
-0.0347
-0.0267
-0.0170
-0.0064
0.0045
0.0148
0.0238
0.0308
0.0354
0.0373
0.0362
0.0324
0.0262
0.0180
0.0086
-0.0013
-0.0109
-0.0194
-0.0262
-0.0199
-0.0114
-0.0017
0.0083
0.0178
0.0261
0.0324
0.0363
0.0373
0.0353
0.0306
0.0233
0.0141
0.0036
-0.0074
-0.0181
-0.0277
-0.0356
-0.0411
-0.0438
-0.0436
-0.0404
-0.0343
-0.0259
-0.0155
-0.0039
0.0082
0.0201
0.0311
0.0405
0.0477
0.0522
0.0539
0.0527
0.0485
0.0415
0.0322
0.0210
0.0085
-0.0048
-0.0181
-0.0309
-0.0426
-0.0526
-0.0606
-0.0661
-0.0690
-0.0692
-0.0667
-0.0615
-0.0539
-0.0442
-0.0327
-0.0199
-0.0062
0.0080
0.0223
0.0361
0.0492
0.0612
0.0718
0.0807
0.0879
0.0931
0.0964
0.0976
0.0970
0.0945
0.0903
0.0845
0.0773
0.0690
0.0596
0.0494
0.0386
0.0274
0.0160
0.0045
-0.0069
-0.0181
-0.0290
-0.0395
-0.0494
-0.0589
-0.0677
-0.0759
-0.0834
-0.0904
-0.0966
-0.1023
-0.1073
-0.1117
-0.1156
-0.1189
-0.1218
-0.1241
-0.1260
-0.1274
-0.1285
-0.1291
-0.1293
-0.1291
-0.1285
-0.1274
-0.1260
-0.1241
-0.1218
-0.1189
-0.1156
-0.1117
-0.1073
-0.1023
-0.0966
-0.0904
-0.0834
-0.0759
-0.0677
-0.0589
-0.0494
-0.0395
-0.0290
-0.0181
-0.0069
0.0045
0.0160
0.0274
0.0386
0.0494
0.0596
0.0690
0.0773
0.0845
0.0903
0.0945
0.0970
0.0976
0.0964
0.0931
0.0879
0.0807
0.0718
0.0612
0.0492
0.0361
0.0223
0.0080
-0.0062
-0.0199
-0.0327
-0.0442
-0.0539
-0.0615
-0.0667
-0.0692
-0.0690
-0.0661
-0.0606
-0.0526
-0.0426
-0.0309
-0.0181
-0.0048
0.0085
0.0210
0.0322
0.0415
0.0485
0.0527
0.0539
0.0522
0.0477
0.0405
0.0311
0.0201
0.0082
-0.0039
-0.0155
-0.0259
-0.0343
-0.0404
-0.0436
-0.0438
-0.0411
-0.0356
-0.0277
-0.0181
-0.0074
0.0036
0.0141
0.0233
0.0306
0.0353
0.0373
0.0363
0.0324
0.0261
0.0178
0.0083
-0.0017
-0.0114
-0.0199
-0.0120
-0.0023
0.0078
0.0175
0.0259
0.0323
0.0362
0.0373
0.0353
0.0304
0.0230
0.0137
0.0030
-0.0081
-0.0189
-0.0286
-0.0363
-0.0416
-0.0440
-0.0433
-0.0396
-0.0330
-0.0240
-0.0132
-0.0012
0.0112
0.0231
0.0339
0.0428
0.0494
0.0531
0.0538
0.0514
0.0460
0.0379
0.0275
0.0154
0.0021
-0.0116
-0.0251
-0.0377
-0.0487
-0.0578
-0.0645
-0.0684
-0.0695
-0.0676
-0.0629
-0.0555
-0.0458
-0.0341
-0.0209
-0.0066
0.0082
0.0231
0.0376
0.0512
0.0635
0.0743
0.0832
0.0901
0.0948
0.0973
0.0975
0.0955
0.0915
0.0855
0.0779
0.0687
0.0582
0.0467
0.0343
0.0215
0.0082
-0.0051
-0.0184
-0.0314
-0.0440
-0.0562
-0.0677
-0.0785
-0.0886
-0.0979
-0.1063
-0.1140
-0.1209
-0.1270
-0.1324
-0.1371
-0.1412
-0.1447
-0.1476
-0.1501
-0.1522
-0.1538
-0.1552
-0.1562
-0.1570
-0.1575
-0.1578
-0.1579
-0.1578
-0.1575
-0.1570
-0.1562
-0.1552
-0.1538
-0.1522
-0.1501
-0.1476
-0.1447
-0.1412
-0.1371
-0.1324
-0.1270
-0.1209
-0.1140
-0.1063
-0.0979
-0.0886
-0.0785
-0.0677
-0.0562
-0.0440
-0.0314
-0.0184
-0.0051
0.0082
0.0215
0.0343
0.0467
0.0582
0.0687
0.0779
0.0855
0.0915
0.0955
0.0975
0.0973
0.0948
0.0901
0.0832
0.0743
0.0635
0.0512
0.0376
0.0231
0.0082
-0.0066
-0.0209
-0.0341
-0.0458
-0.0555
-0.0629
-0.0676
-0.0695
-0.0684
-0.0645
-0.0578
-0.0487
-0.0377
-0.0251
-0.0116
0.0021
0.0154
0.0275
0.0379
0.0460
0.0514
0.0538
0.0531
0.0494
0.0428
0.0339
0.0231
0.0112
-0.0012
-0.0132
-0.0240
-0.0330
-0.0396
-0.0433
-0.0440
-0.0416
-0.0363
-0.0286
-0.0189
-0.0081
0.0030
0.0137
0.0230
0.0304
0.0353
0.0373
0.0362
0.0323
0.0259
0.0175
0.0078
-0.0023
-0.0120
-0.0032
0.0071
0.0169
0.0255
0.0321
0.0362
0.0373
0.0353
0.0304
0.0229
0.0134
0.0026
-0.0087
-0.0195
-0.0292
-0.0368
-0.0419
-0.0441
-0.0430
-0.0388
-0.0318
-0.0223
-0.0111
0.0012
0.0138
0.0257
0.0363
0.0448
0.0507
0.0537
0.0534
0.0499
0.0434
0.0342
0.0228
0.0099
-0.0040
-0.0180
-0.0314
-0.0436
-0.0540
-0.0619
-0.0672
-0.0694
-0.0685
-0.0646
-0.0578
-0.0483
-0.0367
-0.0233
-0.0086
0.0068
0.0223
0.0374
0.0516
0.0645
0.0756
0.0847
0.0914
0.0958
0.0976
0.0969
0.0938
0.0884
0.0808
0.0714
0.0603
0.0479
0.0343
0.0201
0.0053
-0.0097
-0.0247
-0.0395
-0.0538
-0.0674
-0.0803
-0.0924
-0.1035
-0.1136
-0.1226
-0.1307
-0.1377
-0.1437
-0.1488
-0.1531
-0.1565
-0.1593
-0.1614
-0.1629
-0.1640
-0.1647
-0.1651
-0.1653
-0.1653
-0.1652
-0.1650
-0.1648
-0.1647
-0.1646
-0.1645
-0.1646
-0.1647
-0.1648
-0.1650
-0.1652
-0.1653
-0.1653
-0.1651
-0.1647
-0.1640
-0.1629
-0.1614
-0.1593
-0.1565
-0.1531
-0.1488
-0.1437
-0.1377
-0.1307
-0.1226
-0.1136
-0.1035
-0.0924
-0.0803
-0.0674
-0.0538
-0.0395
-0.0247
-0.0097
0.0053
0.0201
0.0343
0.0479
0.0603
0.0714
0.0808
0.0884
0.0938
0.0969
0.0976
0.0958
0.0914
0.0847
0.0756
0.0645
0.0516
0.0374
0.0223
0.0068
-0.0086
-0.0233
-0.0367
-0.0483
-0.0578
-0.0646
-0.0685
-0.0694
-0.0672
-0.0619
-0.0540
-0.0436
-0.0314
-0.0180
-0.0040
0.0099
0.0228
0.0342
0.0434
0.0499
0.0534
0.0537
0.0507
0.0448
0.0363
0.0257
0.0138
0.0012
-0.0111
-0.0223
-0.0318
-0.0388
-0.0430
-0.0441
-0.0419
-0.0368
-0.0292
-0.0195
-0.0087
0.0026
0.0134
0.0229
0.0304
0.0353
0.0373
0.0362
0.0321
0.0255
0.0169
0.0071
-0.0032
0.0061
0.0161
0.0249
0.0318
0.0360
0.0373
0.0354
0.0306
0.0230
0.0134
0.0025
-0.0089
-0.0199
-0.0296
-0.0372
-0.0422
-0.0441
-0.0427
-0.0382
-0.0307
-0.0208
-0.0092
0.0034
0.0160
0.0280
0.0383
0.0465
0.0518
0.0539
0.0527
0.0482
0.0407
0.0305
0.0182
0.0046
-0.0097
-0.0239
-0.0372
-0.0488
-0.0583
-0.0651
-0.0688
-0.0693
-0.0665
-0.0606
-0.0517
-0.0404
-0.0269
-0.0120
0.0038
0.0199
0.0357
0.0506
0.0641
0.0757
0.0851
0.0920
0.0962
0.0977
0.0963
0.0923
0.0856
0.0767
0.0657
0.0529
0.0386
0.0233
0.0073
-0.0092
-0.0258
-0.0422
-0.0581
-0.0733
-0.0876
-0.1008
-0.1129
-0.1237
-0.1332
-0.1414
-0.1482
-0.1538
-0.1582
-0.1614
-0.1636
-0.1649
-0.1653
-0.1650
-0.1641
-0.1627
-0.1609
-0.1589
-0.1568
-0.1546
-0.1524
-0.1504
-0.1486
-0.1470
-0.1457
-0.1447
-0.1441
-0.1439
-0.1441
-0.1447
-0.1457
-0.1470
-0.1486
-0.1504
-0.1524
-0.1546
-0.1568
-0.1589
-0.1609
-0.1627
-0.1641
-0.1650
-0.1653
-0.1649
-0.1636
-0.1614
-0.1582
-0.1538
-0.1482
-0.1414
-0.1332
-0.1237
-0.1129
-0.1008
-0.0876
-0.0733
-0.0581
-0.0422
-0.0258
-0.0092
0.0073
0.0233
0.0386
0.0529
0.0657
0.0767
0.0856
0.0923
0.0963
0.0977
0.0962
0.0920
0.0851
0.0757
0.0641
0.0506
0.0357
0.0199
0.0038
-0.0120
-0.0269
-0.0404
-0.0517
-0.0606
-0.0665
-0.0693
-0.0688
-0.0651
-0.0583
-0.0488
-0.0372
-0.0239
-0.0097
0.0046
0.0182
0.0305
0.0407
0.0482
0.0527
0.0539
0.0518
0.0465
0.0383
0.0280
0.0160
0.0034
-0.0092
-0.0208
-0.0307
-0.0382
-0.0427
-0.0441
-0.0422
-0.0372
-0.0296
-0.0199
-0.0089
0.0025
0.0134
0.0230
0.0306
0.0354
0.0373
0.0360
0.0318
0.0249
0.0161
0.0061
0.0151
0.0242
0.0313
0.0358
0.0373
0.0356
0.0308
0.0233
0.0137
0.0026
-0.0089
-0.0200
-0.0298
-0.0374
-0.0424
-0.0441
-0.0425
-0.0376
-0.0298
-0.0196
-0.0076
0.0052
0.0180
0.0299
0.0400
0.0478
0.0525
0.0539
0.0519
0.0465
0.0380
0.0269
0.0139
-0.0004
-0.0150
-0.0292
-0.0422
-0.0533
-0.0618
-0.0673
-0.0695
-0.0682
-0.0635
-0.0557
-0.0449
-0.0318
-0.0169
-0.0008
0.0159
0.0323
0.0480
0.0623
0.0747
0.0847
0.0920
0.0963
0.0977
0.0959
0.0912
0.0837
0.0735
0.0612
0.0469
0.0310
0.0141
-0.0036
-0.0215
-0.0395
-0.0570
-0.0738
-0.0896
-0.1042
-0.1174
-0.1291
-0.1391
-0.1475
-0.1542
-0.1593
-0.1627
-0.1647
-0.1653
-0.1646
-0.1628
-0.1599
-0.1563
-0.1520
-0.1472
-0.1419
-0.1365
-0.1310
-0.1255
-0.1201
-0.1151
-0.1104
-0.1061
-0.1024
-0.0993
-0.0968
-0.0950
-0.0939
-0.0935
-0.0939
-0.0950
-0.0968
-0.0993
-0.1024
-0.1061
-0.1104
-0.1151
-0.1201
-0.1255
-0.1310
-0.1365
-0.1419
-0.1472
-0.1520
-0.1563
-0.1599
-0.1628
-0.1646
-0.1653
-0.1647
-0.1627
-0.1593
-0.1542
-0.1475
-0.1391
-0.1291
-0.1174
-0.1042
-0.0896
-0.0738
-0.0570
-0.0395
-0.0215
-0.0036
0.0141
0.0310
0.0469
0.0612
0.0735
0.0837
0.0912
0.0959
0.0977
0.0963
0.0920
0.0847
0.0747
0.0623
0.0480
0.0323
0.0159
-0.0008
-0.0169
-0.0318
-0.0449
-0.0557
-0.0635
-0.0682
-0.0695
-0.0673
-0.0618
-0.0533
-0.0422
-0.0292
-0.0150
-0.0004
0.0139
0.0269
0.0380
0.0465
0.0519
0.0539
0.0525
0.0478
0.0400
0.0299
0.0180
0.0052
-0.0076
-0.0196
-0.0298
-0.0376
-0.0425
-0.0441
-0.0424
-0.0374
-0.0298
-0.0200
-0.0089
0.0026
0.0137
0.0233
0.0308
0.0356
0.0373
0.0358
0.0313
0.0242
0.0151
0.0233
0.0307
0.0355
0.0373
0.0358
0.0312
0.0238
0.0141
0.0030
-0.0087
-0.0199
-0.0298
-0.0375
-0.0424
-0.0441
-0.0424
-0.0373
-0.0292
-0.0186
-0.0064
0.0067
0.0196
0.0315
0.0414
0.0488
0.0531
0.0538
0.0510
0.0447
0.0354
0.0235
0.0098
-0.0050
-0.0199
-0.0340
-0.0466
-0.0570
-0.0645
-0.0687
-0.0693
-0.0663
-0.0598
-0.0501
-0.0377
-0.0230
-0.0068
0.0103
0.0274
0.0439
0.0591
0.0724
0.0832
0.0912
0.0961
0.0977
0.0959
0.0908
0.0827
0.0717
0.0582
0.0426
0.0254
0.0070
-0.0121
-0.0314
-0.0505
-0.0690
-0.0865
-0.1027
-0.1174
-0.1303
-0.1412
-0.1501
-0.1570
-0.1617
-0.1645
-0.1653
-0.1642
-0.1615
-0.1573
-0.1517
-0.1449
-0.1372
-0.1287
-0.1196
-0.1101
-0.1003
-0.0906
-0.0809
-0.0715
-0.0624
-0.0539
-0.0460
-0.0388
-0.0324
-0.0268
-0.0222
-0.0186
-0.0160
-0.0144
-0.0139
-0.0144
-0.0160
-0.0186
-0.0222
-0.0268
-0.0324
-0.0388
-0.0460
-0.0539
-0.0624
-0.0715
-0.0809
-0.0906
-0.1003
-0.1101
-0.1196
-0.1287
-0.1372
-0.1449
-0.1517
-0.1573
-0.1615
-0.1642
-0.1653
-0.1645
-0.1617
-0.1570
-0.1501
-0.1412
-0.1303
-0.1174
-0.1027
-0.0865
-0.0690
-0.0505
-0.0314
-0.0121
0.0070
0.0254
0.0426
0.0582
0.0717
0.0827
0.0908
0.0959
0.0977
0.0961
0.0912
0.0832
0.0724
0.0591
0.0439
0.0274
0.0103
-0.0068
-0.0230
-0.0377
-0.0501
-0.0598
-0.0663
-0.0693
-0.0687
-0.0645
-0.0570
-0.0466
-0.0340
-0.0199
-0.0050
0.0098
0.0235
0.0354
0.0447
0.0510
0.0538
0.0531
0.0488
0.0414
0.0315
0.0196
0.0067
-0.0064
-0.0186
-0.0292
-0.0373
-0.0424
-0.0441
-0.0424
-0.0375
-0.0298
-0.0199
-0.0087
0.0030
0.0141
0.0238
0.0312
0.0358
0.0373
0.0355
0.0307
0.0233
0.0299
0.0351
0.0373
0.0361
0.0317
0.0244
0.0148
0.0036
-0.0081
-0.0195
-0.0296
-0.0374
-0.0424
-0.0441
-0.0423
-0.0370
-0.0287
-0.0179
-0.0054
0.0078
0.0208
0.0327
0.0426
0.0496
0.0534
0.0536
0.0500
0.0430
0.0329
0.0203
0.0060
-0.0092
-0.0242
-0.0382
-0.0504
-0.0600
-0.0665
-0.0694
-0.0685
-0.0638
-0.0556
-0.0442
-0.0301
-0.0141
0.0031
0.0208
0.0382
0.0544
0.0688
0.0807
0.0898
0.0955
0.0977
0.0962
0.0912
0.0828
0.0712
0.0569
0.0403
0.0219
0.0023
-0.0181
-0.0387
-0.0589
-0.0782
-0.0964
-0.1129
-0.1274
-0.1398
-0.1498
-0.1574
-0.1624
-0.1649
-0.1650
-0.1628
-0.1583
-0.1518
-0.1436
-0.1337
-0.1224
-0.1101
-0.0968
-0.0829
-0.0685
-0.0539
-0.0393
-0.0248
-0.0107
0.0029
0.0159
0.0282
0.0396
0.0500
0.0593
0.0676
0.0747
0.0805
0.0851
0.0884
0.0904
0.0910
0.0904
0.0884
0.0851
0.0805
0.0747
0.0676
0.0593
0.0500
0.0396
0.0282
0.0159
0.0029
-0.0107
-0.0248
-0.0393
-0.0539
-0.0685
-0.0829
-0.0968
-0.1101
-0.1224
-0.1337
-0.1436
-0.1518
-0.1583
-0.1628
-0.1650
-0.1649
-0.1624
-0.1574
-0.1498
-0.1398
-0.1274
-0.1129
-0.0964
-0.0782
-0.0589
-0.0387
-0.0181
0.0023
0.0219
0.0403
0.0569
0.0712
0.0828
0.0912
0.0962
0.0977
0.0955
0.0898
0.0807
0.0688
0.0544
0.0382
0.0208
0.0031
-0.0141
-0.0301
-0.0442
-0.0556
-0.0638
-0.0685
-0.0694
-0.0665
-0.0600
-0.0504
-0.0382
-0.0242
-0.0092
0.0060
0.0203
0.0329
0.0430
0.0500
0.0536
0.0534
0.0496
0.0426
0.0327
0.0208
0.0078
-0.0054
-0.0179
-0.0287
-0.0370
-0.0423
-0.0441
-0.0424
-0.0374
-0.0296
-0.0195
-0.0081
0.0036
0.0148
0.0244
0.0317
0.0361
0.0373
0.0351
0.0299
0.0346
0.0372
0.0364
0.0323
0.0252
0.0157
0.0045
-0.0074
-0.0189
-0.0292
-0.0372
-0.0424
-0.0441
-0.0423
-0.0369
-0.0285
-0.0175
-0.0048
0.0086
0.0218
0.0337
0.0434
0.0503
0.0536
0.0533
0.0491
0.0414
0.0306
0.0174
0.0025
-0.0129
-0.0281
-0.0419
-0.0537
-0.0625
-0.0679
-0.0695
-0.0671
-0.0608
-0.0510
-0.0380
-0.0226
-0.0054
0.0127
0.0308
0.0480
0.0637
0.0770
0.0873
0.0942
0.0975
0.0968
0.0923
0.0840
0.0722
0.0575
0.0401
0.0208
-0.0000
-0.0215
-0.0432
-0.0645
-0.0847
-0.1035
-0.1203
-0.1347
-0.1466
-0.1556
-0.1617
-0.1648
-0.1650
-0.1622
-0.1567
-0.1486
-0.1381
-0.1255
-0.1110
-0.0950
-0.0777
-0.0593
-0.0402
-0.0207
-0.0009
0.0188
0.0384
0.0574
0.0759
0.0937
0.1105
0.1264
0.1411
0.1546
0.1669
0.1778
0.1873
0.1955
0.2022
0.2074
0.2111
0.2134
0.2141
0.2134
0.2111
0.2074
0.2022
0.1955
0.1873
0.1778
0.1669
0.1546
0.1411
0.1264
0.1105
0.0937
0.0759
0.0574
0.0384
0.0188
-0.0009
-0.0207
-0.0402
-0.0593
-0.0777
-0.0950
-0.1110
-0.1255
-0.1381
-0.1486
-0.1567
-0.1622
-0.1650
-0.1648
-0.1617
-0.1556
-0.1466
-0.1347
-0.1203
-0.1035
-0.0847
-0.0645
-0.0432
-0.0215
-0.0000
0.0208
0.0401
0.0575
0.0722
0.0840
0.0923
0.0968
0.0975
0.0942
0.0873
0.0770
0.0637
0.0480
0.0308
0.0127
-0.0054
-0.0226
-0.0380
-0.0510
-0.0608
-0.0671
-0.0695
-0.0679
-0.0625
-0.0537
-0.0419
-0.0281
-0.0129
0.0025
0.0174
0.0306
0.0414
0.0491
0.0533
0.0536
0.0503
0.0434
0.0337
0.0218
0.0086
-0.0048
-0.0175
-0.0285
-0.0369
-0.0423
-0.0441
-0.0424
-0.0372
-0.0292
-0.0189
-0.0074
0.0045
0.0157
0.0252
0.0323
0.0364
0.0372
0.0346
0.0370
0.0367
0.0330
0.0262
0.0168
0.0056
-0.0064
-0.0181
-0.0286
-0.0368
-0.0422
-0.0441
-0.0424
-0.0370
-0.0285
-0.0173
-0.0045
0.0091
0.0224
0.0344
0.0441
0.0507
0.0538
0.0530
0.0483
0.0400
0.0286
0.0148
-0.0005
-0.0162
-0.0314
-0.0451
-0.0563
-0.0644
-0.0688
-0.0691
-0.0653
-0.0576
-0.0462
-0.0318
-0.0151
0.0030
0.0216
0.0399
0.0568
0.0717
0.0836
0.0922
0.0968
0.0974
0.0938
0.0861
0.0747
0.0598
0.0420
0.0219
0.0002
-0.0223
-0.0451
-0.0674
-0.0886
-0.1080
-0.1252
-0.1396
-0.1511
-0.1593
-0.1640
-0.1652
-0.1630
-0.1574
-0.1486
-0.1367
-0.1222
-0.1051
-0.0860
-0.0650
-0.0426
-0.0191
0.0052
0.0300
0.0549
0.0798
0.1044
0.1284
0.1517
0.1741
0.1955
0.2156
0.2345
0.2521
0.2682
0.2829
0.2961
0.3077
0.3179
0.3264
0.3334
0.3389
0.3428
0.3451
0.3459
0.3451
0.3428
0.3389
0.3334
0.3264
0.3179
0.3077
0.2961
0.2829
0.2682
0.2521
0.2345
0.2156
0.1955
0.1741
0.1517
0.1284
0.1044
0.0798
0.0549
0.0300
0.0052
-0.0191
-0.0426
-0.0650
-0.0860
-0.1051
-0.1222
-0.1367
-0.1486
-0.1574
-0.1630
-0.1652
-0.1640
-0.1593
-0.1511
-0.1396
-0.1252
-0.1080
-0.0886
-0.0674
-0.0451
-0.0223
0.0002
0.0219
0.0420
0.0598
0.0747
0.0861
0.0938
0.0974
0.0968
0.0922
0.0836
0.0717
0.0568
0.0399
0.0216
0.0030
-0.0151
-0.0318
-0.0462
-0.0576
-0.0653
-0.0691
-0.0688
-0.0644
-0.0563
-0.0451
-0.0314
-0.0162
-0.0005
0.0148
0.0286
0.0400
0.0483
0.0530
0.0538
0.0507
0.0441
0.0344
0.0224
0.0091
-0.0045
-0.0173
-0.0285
-0.0370
-0.0424
-0.0441
-0.0422
-0.0368
-0.0286
-0.0181
-0.0064
0.0056
0.0168
0.0262
0.0330
0.0367
0.0370
0.0370
0.0337
0.0273
0.0181
0.0070
-0.0051
-0.0170
-0.0277
-0.0363
-0.0419
-0.0441
-0.0425
-0.0373
-0.0287
-0.0175
-0.0045
0.0093
0.0227
0.0348
0.0445
0.0510
0.0539
0.0527
0.0476
0.0388
0.0268
0.0125
-0.0031
-0.0191
-0.0343
-0.0478
-0.0586
-0.0659
-0.0693
-0.0684
-0.0633
-0.0541
-0.0414
-0.0257
-0.0080
0.0109
0.0300
0.0482
0.0646
0.0784
0.0888
0.0954
0.0977
0.0955
0.0890
0.0782
0.0637
0.0459
0.0254
0.0030
-0.0205
-0.0443
-0.0677
-0.0899
-0.1101
-0.1278
-0.1426
-0.1538
-0.1614
-0.1650
-0.1645
-0.1601
-0.1518
-0.1398
-0.1244
-0.1058
-0.0844
-0.0606
-0.0349
-0.0075
0.0212
0.0506
0.0805
0.1105
0.1404
0.1698
0.1984
0.2262
0.2528
0.2783
0.3023
0.3249
0.3459
0.3654
0.3832
0.3995
0.4141
0.4271
0.4386
0.4484
0.4567
0.4634
0.4686
0.4724
0.4746
0.4753
0.4746
0.4724
0.4686
0.4634
0.4567
0.4484
0.4386
0.4271
0.4141
0.3995
0.3832
0.3654
0.3459
0.3249
0.3023
0.2783
0.2528
0.2262
0.1984
0.1698
0.1404
0.1105
0.0805
0.0506
0.0212
-0.0075
-0.0349
-0.0606
-0.0844
-0.1058
-0.1244
-0.1398
-0.1518
-0.1601
-0.1645
-0.1650
-0.1614
-0.1538
-0.1426
-0.1278
-0.1101
-0.0899
-0.0677
-0.0443
-0.0205
0.0030
0.0254
0.0459
0.0637
0.0782
0.0890
0.0955
0.0977
0.0954
0.0888
0.0784
0.0646
0.0482
0.0300
0.0109
-0.0080
-0.0257
-0.0414
-0.0541
-0.0633
-0.0684
-0.0693
-0.0659
-0.0586
-0.0478
-0.0343
-0.0191
-0.0031
0.0125
0.0268
0.0388
0.0476
0.0527
0.0539
0.0510
0.0445
0.0348
0.0227
0.0093
-0.0045
-0.0175
-0.0287
-0.0373
-0.0425
-0.0441
-0.0419
-0.0363
-0.0277
-0.0170
-0.0051
0.0070
0.0181
0.0273
0.0337
0.0370
0.0345
0.0284
0.0195
0.0085
-0.0035
-0.0156
-0.0267
-0.0356
-0.0416
-0.0441
-0.0427
-0.0376
-0.0292
-0.0179
-0.0048
0.0091
0.0227
0.0349
0.0447
0.0512
0.0539
0.0525
0.0470
0.0378
0.0254
0.0107
-0.0053
-0.0215
-0.0368
-0.0500
-0.0604
-0.0670
-0.0695
-0.0675
-0.0611
-0.0507
-0.0367
-0.0199
-0.0012
0.0183
0.0376
0.0556
0.0713
0.0839
0.0927
0.0972
0.0970
0.0921
0.0827
0.0690
0.0515
0.0310
0.0082
-0.0160
-0.0408
-0.0653
-0.0886
-0.1099
-0.1285
-0.1437
-0.1552
-0.1624
-0.1652
-0.1635
-0.1573
-0.1466
-0.1317
-0.1129
-0.0906
-0.0650
-0.0368
-0.0064
0.0258
0.0593
0.0937
0.1284
0.1632
0.1977
0.2315
0.2644
0.2961
0.3264
0.3553
0.3825
0.4080
0.4317
0.4537
0.4738
0.4922
0.5089
0.5238