# vtk DataFile Version 1.0
2D Sin graph datase
ASCII

DATASET STRUCTURED_POINTS
DIMENSIONS 201 201 1
ORIGIN 0 0 0
SPACING 0.05 0.05 0.05

POINT_DATA 40401

SCALARS scalars float
LOOKUP_TABLE default
-0.0099
-0.0193
-0.0275
-0.0337
-0.0374
-0.0384
-0.0364
-0.0316
-0.0244
-0.0151
-0.0045
0.0068
0.0179
0.0280
0.0365
0.0428
0.0463
0.0468
0.0443
0.0388
0.0307
0.0203
0.0084
-0.0044
-0.0173
-0.0296
-0.0406
-0.0497
-0.0562
-0.0598
-0.0603
-0.0577
-0.0519
-0.0432
-0.0321
-0.0190
-0.0046
0.0106
0.0258
0.0404
0.0537
0.0653
0.0745
0.0810
0.0845
0.0848
0.0820
0.0761
0.0672
0.0557
0.0418
0.0261
0.0090
-0.0091
-0.0276
-0.0461
-0.0639
-0.0808
-0.0963
-0.1100
-0.1216
-0.1310
-0.1379
-0.1422
-0.1439
-0.1430
-0.1395
-0.1335
-0.1252
-0.1148
-0.1023
-0.0881
-0.0724
-0.0554
-0.0373
-0.0183
0.0012
0.0211
0.0412
0.0613
0.0813
0.1008
0.1200
0.1384
0.1562
0.1732
0.1893
0.2045
0.2186
0.2317
0.2437
0.2546
0.2644
0.2730
0.2805
0.2869
0.2921
0.2961
0.2990
0.3007
0.3013
0.3007
0.2990
0.2961
0.2921
0.2869
0.2805
0.2730
0.2644
0.2546
0.2437
0.2317
0.2186
0.2045
0.1893
0.1732
0.1562
0.1384
0.1200
0.1008
0.0813
0.0613
0.0412
0.0211
0.0012
-0.0183
-0.0373
-0.0554
-0.0724
-0.0881
-0.1023
-0.1148
-0.1252
-0.1335
-0.1395
-0.1430
-0.1439
-0.1422
-0.1379
-0.1310
-0.1216
-0.1100
-0.0963
-0.0808
-0.0639
-0.0461
-0.0276
-0.0091
0.0090
0.0261
0.0418
0.0557
0.0672
0.0761
0.0820
0.0848
0.0845
0.0810
0.0745
0.0653
0.0537
0.0404
0.0258
0.0106
-0.0046
-0.0190
-0.0321
-0.0432
-0.0519
-0.0577
-0.0603
-0.0598
-0.0562
-0.0497
-0.0406
-0.0296
-0.0173
-0.0044
0.0084
0.0203
0.0307
0.0388
0.0443
0.0468
0.0463
0.0428
0.0365
0.0280
0.0179
0.0068
-0.0045
-0.0151
-0.0244
-0.0316
-0.0364
-0.0384
-0.0374
-0.0337
-0.0275
-0.0193
-0.0099
-0.0193
-0.0276
-0.0338
-0.0375
-0.0384
-0.0362
-0.0312
-0.0237
-0.0142
-0.0033
0.0081
0.0192
0.0293
0.0376
0.0436
0.0466
0.0466
0.0434
0.0372
0.0284
0.0174
0.0050
-0.0081
-0.0211
-0.0333
-0.0439
-0.0523
-0.0579
-0.0604
-0.0596
-0.0555
-0.0482
-0.0382
-0.0258
-0.0116
0.0037
0.0193
0.0347
0.0489
0.0615
0.0718
0.0794
0.0839
0.0850
0.0828
0.0772
0.0685
0.0568
0.0426
0.0263
0.0084
-0.0105
-0.0299
-0.0491
-0.0677
-0.0851
-0.1009
-0.1147
-0.1261
-0.1348
-0.1407
-0.1436
-0.1435
-0.1404
-0.1344
-0.1255
-0.1140
-0.1001
-0.0839
-0.0658
-0.0460
-0.0248
-0.0025
0.0207
0.0445
0.0685
0.0927
0.1168
0.1406
0.1639
0.1865
0.2084
0.2294
0.2494
0.2684
0.2863
0.3030
0.3186
0.3330
0.3462
0.3581
0.3689
0.3785
0.3869
0.3942
0.4003
0.4052
0.4091
0.4118
0.4135
0.4140
0.4135
0.4118
0.4091
0.4052
0.4003
0.3942
0.3869
0.3785
0.3689
0.3581
0.3462
0.3330
0.3186
0.3030
0.2863
0.2684
0.2494
0.2294
0.2084
0.1865
0.1639
0.1406
0.1168
0.0927
0.0685
0.0445
0.0207
-0.0025
-0.0248
-0.0460
-0.0658
-0.0839
-0.1001
-0.1140
-0.1255
-0.1344
-0.1404
-0.1435
-0.1436
-0.1407
-0.1348
-0.1261
-0.1147
-0.1009
-0.0851
-0.0677
-0.0491
-0.0299
-0.0105
0.0084
0.0263
0.0426
0.0568
0.0685
0.0772
0.0828
0.0850
0.0839
0.0794
0.0718
0.0615
0.0489
0.0347
0.0193
0.0037
-0.0116
-0.0258
-0.0382
-0.0482
-0.0555
-0.0596
-0.0604
-0.0579
-0.0523
-0.0439
-0.0333
-0.0211
-0.0081
0.0050
0.0174
0.0284
0.0372
0.0434
0.0466
0.0466
0.0436
0.0376
0.0293
0.0192
0.0081
-0.0033
-0.0142
-0.0237
-0.0312
-0.0362
-0.0384
-0.0375
-0.0338
-0.0276
-0.0193
-0.0275
-0.0338
-0.0375
-0.0383
-0.0361
-0.0310
-0.0233
-0.0135
-0.0025
0.0091
0.0203
0.0304
0.0385
0.0442
0.0468
0.0463
0.0425
0.0357
0.0262
0.0148
0.0019
-0.0115
-0.0246
-0.0366
-0.0468
-0.0544
-0.0591
-0.0605
-0.0584
-0.0530
-0.0443
-0.0329
-0.0194
-0.0042
0.0117
0.0276
0.0428
0.0565
0.0681
0.0770
0.0827
0.0850
0.0838
0.0789
0.0706
0.0591
0.0448
0.0281
0.0097
-0.0099
-0.0301
-0.0501
-0.0695
-0.0875
-0.1038
-0.1177
-0.1290
-0.1372
-0.1423
-0.1440
-0.1422
-0.1371
-0.1286
-0.1170
-0.1023
-0.0850
-0.0652
-0.0432
-0.0195
0.0058
0.0322
0.0594
0.0872
0.1153
0.1433
0.1710
0.1983
0.2248
0.2506
0.2753
0.2990
0.3215
0.3427
0.3627
0.3813
0.3986
0.4146
0.4292
0.4426
0.4547
0.4656
0.4753
0.4838
0.4912
0.4976
0.5029
0.5072
0.5105
0.5129
0.5143
0.5147
0.5143
0.5129
0.5105
0.5072
0.5029
0.4976
0.4912
0.4838
0.4753
0.4656
0.4547
0.4426
0.4292
0.4146
0.3986
0.3813
0.3627
0.3427
0.3215
0.2990
0.2753
0.2506
0.2248
0.1983
0.1710
0.1433
0.1153
0.0872
0.0594
0.0322
0.0058
-0.0195
-0.0432
-0.0652
-0.0850
-0.1023
-0.1170
-0.1286
-0.1371
-0.1422
-0.1440
-0.1423
-0.1372
-0.1290
-0.1177
-0.1038
-0.0875
-0.0695
-0.0501
-0.0301
-0.0099
0.0097
0.0281
0.0448
0.0591
0.0706
0.0789
0.0838
0.0850
0.0827
0.0770
0.0681
0.0565
0.0428
0.0276
0.0117
-0.0042
-0.0194
-0.0329
-0.0443
-0.0530
-0.0584
-0.0605
-0.0591
-0.0544
-0.0468
-0.0366
-0.0246
-0.0115
0.0019
0.0148
0.0262
0.0357
0.0425
0.0463
0.0468
0.0442
0.0385
0.0304
0.0203
0.0091
-0.0025
-0.0135
-0.0233
-0.0310
-0.0361
-0.0383
-0.0375
-0.0338
-0.0275
-0.0337
-0.0375
-0.0383
-0.0361
-0.0308
-0.0230
-0.0131
-0.0019
0.0098
0.0211
0.0312
0.0392
0.0446
0.0469
0.0459
0.0416
0.0343
0.0243
0.0123
-0.0009
-0.0145
-0.0277
-0.0395
-0.0492
-0.0562
-0.0599
-0.0602
-0.0569
-0.0501
-0.0402
-0.0276
-0.0130
0.0029
0.0192
0.0353
0.0501
0.0631
0.0735
0.0808
0.0846
0.0846
0.0809
0.0734
0.0624
0.0483
0.0316
0.0128
-0.0074
-0.0282
-0.0491
-0.0693
-0.0881
-0.1049
-0.1192
-0.1306
-0.1386
-0.1431
-0.1438
-0.1406
-0.1337
-0.1230
-0.1087
-0.0912
-0.0706
-0.0474
-0.0218
0.0058
0.0349
0.0652
0.0963
0.1278
0.1595
0.1910
0.2220
0.2523
0.2817
0.3100
0.3370
0.3627
0.3869
0.4096
0.4309
0.4505
0.4687
0.4853
0.5005
0.5143
0.5267
0.5378
0.5478
0.5565
0.5642
0.5709
0.5767
0.5815
0.5855
0.5887
0.5912
0.5929
0.5939
0.5943
0.5939
0.5929
0.5912
0.5887
0.5855
0.5815
0.5767
0.5709
0.5642
0.5565
0.5478
0.5378
0.5267
0.5143
0.5005
0.4853
0.4687
0.4505
0.4309
0.4096
0.3869
0.3627
0.3370
0.3100
0.2817
0.2523
0.2220
0.1910
0.1595
0.1278
0.0963
0.0652
0.0349
0.0058
-0.0218
-0.0474
-0.0706
-0.0912
-0.1087
-0.1230
-0.1337
-0.1406
-0.1438
-0.1431
-0.1386
-0.1306
-0.1192
-0.1049
-0.0881
-0.0693
-0.0491
-0.0282
-0.0074
0.0128
0.0316
0.0483
0.0624
0.0734
0.0809
0.0846
0.0846
0.0808
0.0735
0.0631
0.0501
0.0353
0.0192
0.0029
-0.0130
-0.0276
-0.0402
-0.0501
-0.0569
-0.0602
-0.0599
-0.0562
-0.0492
-0.0395
-0.0277
-0.0145
-0.0009
0.0123
0.0243
0.0343
0.0416
0.0459
0.0469
0.0446
0.0392
0.0312
0.0211
0.0098
-0.0019
-0.0131
-0.0230
-0.0308
-0.0361
-0.0383
-0.0375
-0.0337
-0.0374
-0.0384
-0.0361
-0.0308
-0.0229
-0.0128
-0.0015
0.0104
0.0217
0.0318
0.0398
0.0450
0.0470
0.0456
0.0408
0.0330
0.0225
0.0101
-0.0034
-0.0172
-0.0303
-0.0419
-0.0512
-0.0575
-0.0604
-0.0596
-0.0551
-0.0472
-0.0361
-0.0224
-0.0069
0.0096
0.0263
0.0422
0.0566
0.0687
0.0777
0.0833
0.0851
0.0828
0.0766
0.0665
0.0530
0.0365
0.0176
-0.0029
-0.0244
-0.0461
-0.0671
-0.0868
-0.1044
-0.1194
-0.1311
-0.1392
-0.1434
-0.1435
-0.1392
-0.1308
-0.1182
-0.1017
-0.0815
-0.0579
-0.0315
-0.0025
0.0286
0.0613
0.0953
0.1299
0.1650
0.2000
0.2345
0.2684
0.3013
0.3330
0.3632
0.3919
0.4189
0.4442
0.4676
0.4893
0.5091
0.5272
0.5435
0.5582
0.5713
0.5830
0.5932
0.6023
0.6101
0.6169
0.6227
0.6276
0.6318
0.6353
0.6381
0.6404
0.6422
0.6435
0.6445
0.6450
0.6452
0.6450
0.6445
0.6435
0.6422
0.6404
0.6381
0.6353
0.6318
0.6276
0.6227
0.6169
0.6101
0.6023
0.5932
0.5830
0.5713
0.5582
0.5435
0.5272
0.5091
0.4893
0.4676
0.4442
0.4189
0.3919
0.3632
0.3330
0.3013
0.2684
0.2345
0.2000
0.1650
0.1299
0.0953
0.0613
0.0286
-0.0025
-0.0315
-0.0579
-0.0815
-0.1017
-0.1182
-0.1308
-0.1392
-0.1435
-0.1434
-0.1392
-0.1311
-0.1194
-0.1044
-0.0868
-0.0671
-0.0461
-0.0244
-0.0029
0.0176
0.0365
0.0530
0.0665
0.0766
0.0828
0.0851
0.0833
0.0777
0.0687
0.0566
0.0422
0.0263
0.0096
-0.0069
-0.0224
-0.0361
-0.0472
-0.0551
-0.0596
-0.0604
-0.0575
-0.0512
-0.0419
-0.0303
-0.0172
-0.0034
0.0101
0.0225
0.0330
0.0408
0.0456
0.0470
0.0450
0.0398
0.0318
0.0217
0.0104
-0.0015
-0.0128
-0.0229
-0.0308
-0.0361
-0.0384
-0.0374
-0.0384
-0.0362
-0.0310
-0.0230
-0.0128
-0.0014
0.0106
0.0221
0.0322
0.0401
0.0452
0.0470
0.0453
0.0402
0.0319
0.0210
0.0082
-0.0056
-0.0196
-0.0327
-0.0440
-0.0528
-0.0585
-0.0605
-0.0588
-0.0532
-0.0441
-0.0319
-0.0173
-0.0011
0.0159
0.0328
0.0485
0.0623
0.0733
0.0809
0.0847
0.0844
0.0798
0.0711
0.0586
0.0427
0.0241
0.0034
-0.0186
-0.0410
-0.0629
-0.0836
-0.1023
-0.1181
-0.1306
-0.1392
-0.1435
-0.1433
-0.1384
-0.1289
-0.1148
-0.0963
-0.0738
-0.0477
-0.0183
0.0138
0.0482
0.0842
0.1215
0.1595
0.1977
0.2357
0.2730
0.3094
0.3444
0.3779
0.4096
0.4394
0.4671
0.4927
0.5161
0.5374
0.5565
0.5736
0.5887
0.6019
0.6134
0.6232
0.6315
0.6385
0.6443
0.6490
0.6527
0.6556
0.6579
0.6595
0.6607
0.6616
0.6621
0.6624
0.6626
0.6627
0.6627
0.6627
0.6627
0.6627
0.6627
0.6627
0.6626
0.6624
0.6621
0.6616
0.6607
0.6595
0.6579
0.6556
0.6527
0.6490
0.6443
0.6385
0.6315
0.6232
0.6134
0.6019
0.5887
0.5736
0.5565
0.5374
0.5161
0.4927
0.4671
0.4394
0.4096
0.3779
0.3444
0.3094
0.2730
0.2357
0.1977
0.1595
0.1215
0.0842
0.0482
0.0138
-0.0183
-0.0477
-0.0738
-0.0963
-0.1148
-0.1289
-0.1384
-0.1433
-0.1435
-0.1392
-0.1306
-0.1181
-0.1023
-0.0836
-0.0629
-0.0410
-0.0186
0.0034
0.0241
0.0427
0.0586
0.0711
0.0798
0.0844
0.0847
0.0809
0.0733
0.0623
0.0485
0.0328
0.0159
-0.0011
-0.0173
-0.0319
-0.0441
-0.0532
-0.0588
-0.0605
-0.0585
-0.0528
-0.0440
-0.0327
-0.0196
-0.0056
0.0082
0.0210
0.0319
0.0402
0.0453
0.0470
0.0452
0.0401
0.0322
0.0221
0.0106
-0.0014
-0.0128
-0.0230
-0.0310
-0.0362
-0.0384
-0.0364
-0.0312
-0.0233
-0.0131
-0.0015
0.0106
0.0222
0.0324
0.0403
0.0454
0.0470
0.0451
0.0396
0.0310
0.0197
0.0066
-0.0075
-0.0216
-0.0346
-0.0458
-0.0542
-0.0592
-0.0605
-0.0578
-0.0512
-0.0411
-0.0279
-0.0125
0.0044
0.0218
0.0387
0.0541
0.0671
0.0770
0.0831
0.0851
0.0826
0.0758
0.0648
0.0499
0.0319
0.0113
-0.0109
-0.0339
-0.0568
-0.0785
-0.0984
-0.1154
-0.1290
-0.1384
-0.1433
-0.1434
-0.1383
-0.1282
-0.1131
-0.0932
-0.0688
-0.0404
-0.0085
0.0264
0.0637
0.1029
0.1433
0.1843
0.2254
0.2661
0.3059
0.3444
0.3813
0.4162
0.4489
0.4793
0.5072
0.5325
0.5553
0.5755
0.5932
0.6086
0.6216
0.6325
0.6414
0.6485
0.6539
0.6579
0.6605
0.6621
0.6627
0.6625
0.6617
0.6605
0.6588
0.6570
0.6551
0.6531
0.6512
0.6495
0.6480
0.6468
0.6459
0.6454
0.6452
0.6454
0.6459
0.6468
0.6480
0.6495
0.6512
0.6531
0.6551
0.6570
0.6588
0.6605
0.6617
0.6625
0.6627
0.6621
0.6605
0.6579
0.6539
0.6485
0.6414
0.6325
0.6216
0.6086
0.5932
0.5755
0.5553
0.5325
0.5072
0.4793
0.4489
0.4162
0.3813
0.3444
0.3059
0.2661
0.2254
0.1843
0.1433
0.1029
0.0637
0.0264
-0.0085
-0.0404
-0.0688
-0.0932
-0.1131
-0.1282
-0.1383
-0.1434
-0.1433
-0.1384
-0.1290
-0.1154
-0.0984
-0.0785
-0.0568
-0.0339
-0.0109
0.0113
0.0319
0.0499
0.0648
0.0758
0.0826
0.0851
0.0831
0.0770
0.0671
0.0541
0.0387
0.0218
0.0044
-0.0125
-0.0279
-0.0411
-0.0512
-0.0578
-0.0605
-0.0592
-0.0542
-0.0458
-0.0346
-0.0216
-0.0075
0.0066
0.0197
0.0310
0.0396
0.0451
0.0470
0.0454
0.0403
0.0324
0.0222
0.0106
-0.0015
-0.0131
-0.0233
-0.0312
-0.0364
-0.0316
-0.0237
-0.0135
-0.0019
0.0104
0.0221
0.0324
0.0404
0.0454
0.0470
0.0449
0.0392
0.0303
0.0187
0.0053
-0.0090
-0.0232
-0.0362
-0.0472
-0.0552
-0.0597
-0.0603
-0.0567
-0.0492
-0.0382
-0.0241
-0.0079
0.0095
0.0271
0.0439
0.0589
0.0711
0.0798
0.0844
0.0846
0.0801
0.0710
0.0578
0.0408
0.0208
-0.0014
-0.0248
-0.0485
-0.0714
-0.0926
-0.1111
-0.1261
-0.1368
-0.1428
-0.1436
-0.1390
-0.1289
-0.1133
-0.0924
-0.0667
-0.0365
-0.0025
0.0349
0.0749
0.1168
0.1600
0.2039
0.2477
0.2909
0.3330
0.3734
0.4118
0.4479
0.4813
0.5119
0.5396
0.5642
0.5859
0.6045
0.6202
0.6332
0.6435
0.6514
0.6571
0.6607
0.6625
0.6626
0.6614
0.6590
0.6557
0.6515
0.6468
0.6417
0.6364
0.6309
0.6255
0.6203
0.6153
0.6107
0.6065
0.6029
0.5999
0.5974
0.5957
0.5946
0.5943
0.5946
0.5957
0.5974
0.5999
0.6029
0.6065
0.6107
0.6153
0.6203
0.6255
0.6309
0.6364
0.6417
0.6468
0.6515
0.6557
0.6590
0.6614
0.6626
0.6625
0.6607
0.6571
0.6514
0.6435
0.6332
0.6202
0.6045
0.5859
0.5642
0.5396
0.5119
0.4813
0.4479
0.4118
0.3734
0.3330
0.2909
0.2477
0.2039
0.1600
0.1168
0.0749
0.0349
-0.0025
-0.0365
-0.0667
-0.0924
-0.1133
-0.1289
-0.1390
-0.1436
-0.1428
-0.1368
-0.1261
-0.1111
-0.0926
-0.0714
-0.0485
-0.0248
-0.0014
0.0208
0.0408
0.0578
0.0710
0.0801
0.0846
0.0844
0.0798
0.0711
0.0589
0.0439
0.0271
0.0095
-0.0079
-0.0241
-0.0382
-0.0492
-0.0567
-0.0603
-0.0597
-0.0552
-0.0472
-0.0362
-0.0232
-0.0090
0.0053
0.0187
0.0303
0.0392
0.0449
0.0470
0.0454
0.0404
0.0324
0.0221
0.0104
-0.0019
-0.0135
-0.0237
-0.0316
-0.0244
-0.0142
-0.0025
0.0098
0.0217
0.0322
0.0403
0.0454
0.0470
0.0448
0.0389
0.0298
0.0180
0.0043
-0.0102
-0.0245
-0.0375
-0.0483
-0.0560
-0.0600
-0.0600
-0.0557
-0.0473
-0.0354
-0.0206
-0.0038
0.0141
0.0319
0.0486
0.0631
0.0745
0.0820
0.0850
0.0833
0.0768
0.0657
0.0503
0.0314
0.0097
-0.0138
-0.0382
-0.0622
-0.0847
-0.1049
-0.1216
-0.1342
-0.1418
-0.1439
-0.1403
-0.1308
-0.1153
-0.0942
-0.0676
-0.0362
-0.0004
0.0390
0.0813
0.1257
0.1716
0.2180
0.2644
0.3100
0.3541
0.3964
0.4362
0.4733
0.5072
0.5378
0.5650
0.5887
0.6089
0.6256
0.6389
0.6491
0.6563
0.6607
0.6626
0.6622
0.6598
0.6557
0.6500
0.6431
0.6352
0.6266
0.6174
0.6078
0.5981
0.5885
0.5790
0.5698
0.5610
0.5528
0.5452
0.5383
0.5322
0.5270
0.5226
0.5192
0.5167
0.5152
0.5147
0.5152
0.5167
0.5192
0.5226
0.5270
0.5322
0.5383
0.5452
0.5528
0.5610
0.5698
0.5790
0.5885
0.5981
0.6078
0.6174
0.6266
0.6352
0.6431
0.6500
0.6557
0.6598
0.6622
0.6626
0.6607
0.6563
0.6491
0.6389
0.6256
0.6089
0.5887
0.5650
0.5378
0.5072
0.4733
0.4362
0.3964
0.3541
0.3100
0.2644
0.2180
0.1716
0.1257
0.0813
0.0390
-0.0004
-0.0362
-0.0676
-0.0942
-0.1153
-0.1308
-0.1403
-0.1439
-0.1418
-0.1342
-0.1216
-0.1049
-0.0847
-0.0622
-0.0382
-0.0138
0.0097
0.0314
0.0503
0.0657
0.0768
0.0833
0.0850
0.0820
0.0745
0.0631
0.0486
0.0319
0.0141
-0.0038
-0.0206
-0.0354
-0.0473
-0.0557
-0.0600
-0.0600
-0.0560
-0.0483
-0.0375
-0.0245
-0.0102
0.0043
0.0180
0.0298
0.0389
0.0448
0.0470
0.0454
0.0403
0.0322
0.0217
0.0098
-0.0025
-0.0142
-0.0244
-0.0151
-0.0033
0.0091
0.0211
0.0318
0.0401
0.0454
0.0470
0.0448
0.0389
0.0295
0.0175
0.0036
-0.0111
-0.0255
-0.0385
-0.0492
-0.0567
-0.0603
-0.0596
-0.0547
-0.0456
-0.0329
-0.0174
-0.0000
0.0183
0.0362
0.0527
0.0667
0.0772
0.0834
0.0850
0.0816
0.0731
0.0600
0.0427
0.0220
-0.0012
-0.0258
-0.0507
-0.0747
-0.0966
-0.1154
-0.1301
-0.1398
-0.1439
-0.1419
-0.1337
-0.1190
-0.0982
-0.0715
-0.0394
-0.0025
0.0385
0.0827
0.1294
0.1776
0.2266
0.2753
0.3232
0.3695
0.4135
0.4547
0.4927
0.5272
0.5578
0.5844
0.6070
0.6256
0.6402
0.6510
0.6582
0.6620
0.6626
0.6605
0.6558
0.6489
0.6401
0.6297
0.6180
0.6052
0.5918
0.5778
0.5635
0.5492
0.5350
0.5212
0.5077
0.4949
0.4827
0.4713
0.4608
0.4512
0.4427
0.4352
0.4288
0.4235
0.4194
0.4164
0.4146
0.4140
0.4146
0.4164
0.4194
0.4235
0.4288
0.4352
0.4427
0.4512
0.4608
0.4713
0.4827
0.4949
0.5077
0.5212
0.5350
0.5492
0.5635
0.5778
0.5918
0.6052
0.6180
0.6297
0.6401
0.6489
0.6558
0.6605
0.6626
0.6620
0.6582
0.6510
0.6402
0.6256
0.6070
0.5844
0.5578
0.5272
0.4927
0.4547
0.4135
0.3695
0.3232
0.2753
0.2266
0.1776
0.1294
0.0827
0.0385
-0.0025
-0.0394
-0.0715
-0.0982
-0.1190
-0.1337
-0.1419
-0.1439
-0.1398
-0.1301
-0.1154
-0.0966
-0.0747
-0.0507
-0.0258
-0.0012
0.0220
0.0427
0.0600
0.0731
0.0816
0.0850
0.0834
0.0772
0.0667
0.0527
0.0362
0.0183
-0.0000
-0.0174
-0.0329
-0.0456
-0.0547
-0.0596
-0.0603
-0.0567
-0.0492
-0.0385
-0.0255
-0.0111
0.0036
0.0175
0.0295
0.0389
0.0448
0.0470
0.0454
0.0401
0.0318
0.0211
0.0091
-0.0033
-0.0151
-0.0045
0.0081
0.0203
0.0312
0.0398
0.0452
0.0470
0.0449
0.0389
0.0295
0.0174
0.0033
-0.0116
-0.0261
-0.0392
-0.0499
-0.0571
-0.0604
-0.0593
-0.0537
-0.0440
-0.0307
-0.0146
0.0033
0.0219
0.0399
0.0562
0.0696
0.0793
0.0844
0.0845
0.0794
0.0691
0.0542
0.0351
0.0128
-0.0117
-0.0371
-0.0624
-0.0860
-0.1070
-0.1241
-0.1364
-0.1430
-0.1433
-0.1371
-0.1240
-0.1043
-0.0781
-0.0460
-0.0085
0.0335
0.0793
0.1278
0.1782
0.2294
0.2805
0.3307
0.3791
0.4249
0.4676
0.5067
0.5418
0.5725
0.5986
0.6202
0.6372
0.6498
0.6580
0.6621
0.6624
0.6593
0.6530
0.6439
0.6324
0.6188
0.6036
0.5870
0.5693
0.5510
0.5322
0.5132
0.4943
0.4757
0.4574
0.4398
0.4229
0.4069
0.3917
0.3776
0.3646
0.3528
0.3421
0.3326
0.3243
0.3173
0.3116
0.3071
0.3039
0.3020
0.3013
0.3020
0.3039
0.3071
0.3116
0.3173
0.3243
0.3326
0.3421
0.3528
0.3646
0.3776
0.3917
0.4069
0.4229
0.4398
0.4574
0.4757
0.4943
0.5132
0.5322
0.5510
0.5693
0.5870
0.6036
0.6188
0.6324
0.6439
0.6530
0.6593
0.6624
0.6621
0.6580
0.6498
0.6372
0.6202
0.5986
0.5725
0.5418
0.5067
0.4676
0.4249
0.3791
0.3307
0.2805
0.2294
0.1782
0.1278
0.0793
0.0335
-0.0085
-0.0460
-0.0781
-0.1043
-0.1240
-0.1371
-0.1433
-0.1430
-0.1364
-0.1241
-0.1070
-0.0860
-0.0624
-0.0371
-0.0117
0.0128
0.0351
0.0542
0.0691
0.0794
0.0845
0.0844
0.0793
0.0696
0.0562
0.0399
0.0219
0.0033
-0.0146
-0.0307
-0.0440
-0.0537
-0.0593
-0.0604
-0.0571
-0.0499
-0.0392
-0.0261
-0.0116
0.0033
0.0174
0.0295
0.0389
0.0449
0.0470
0.0452
0.0398
0.0312
0.0203
0.0081
-0.0045
0.0068
0.0192
0.0304
0.0392
0.0450
0.0470
0.0451
0.0392
0.0298
0.0175
0.0033
-0.0117
-0.0265
-0.0397
-0.0503
-0.0574
-0.0605
-0.0590
-0.0530
-0.0427
-0.0288
-0.0121
0.0062
0.0251
0.0431
0.0592
0.0721
0.0809
0.0849
0.0836
0.0769
0.0650
0.0483
0.0276
0.0039
-0.0216
-0.0477
-0.0730
-0.0961
-0.1158
-0.1310
-0.1406
-0.1440
-0.1404
-0.1298
-0.1119
-0.0871
-0.0557
-0.0183
0.0242
0.0710
0.1210
0.1732
0.2266
0.2800
0.3324
0.3830
0.4309
0.4753
0.5157
0.5516
0.5826
0.6086
0.6294
0.6450
0.6556
0.6614
0.6626
0.6596
0.6527
0.6423
0.6289
0.6129
0.5946
0.5746
0.5532
0.5308
0.5077
0.4843
0.4608
0.4375
0.4146
0.3924
0.3708
0.3503
0.3307
0.3122
0.2949
0.2788
0.2640
0.2505
0.2382
0.2273
0.2177
0.2094
0.2024
0.1967
0.1922
0.1891
0.1872
0.1865
0.1872
0.1891
0.1922
0.1967
0.2024
0.2094
0.2177
0.2273
0.2382
0.2505
0.2640
0.2788
0.2949
0.3122
0.3307
0.3503
0.3708
0.3924
0.4146
0.4375
0.4608
0.4843
0.5077
0.5308
0.5532
0.5746
0.5946
0.6129
0.6289
0.6423
0.6527
0.6596
0.6626
0.6614
0.6556
0.6450
0.6294
0.6086
0.5826
0.5516
0.5157
0.4753
0.4309
0.3830
0.3324
0.2800
0.2266
0.1732
0.1210
0.0710
0.0242
-0.0183
-0.0557
-0.0871
-0.1119
-0.1298
-0.1404
-0.1440
-0.1406
-0.1310
-0.1158
-0.0961
-0.0730
-0.0477
-0.0216
0.0039
0.0276
0.0483
0.0650
0.0769
0.0836
0.0849
0.0809
0.0721
0.0592
0.0431
0.0251
0.0062
-0.0121
-0.0288
-0.0427
-0.0530
-0.0590
-0.0605
-0.0574
-0.0503
-0.0397
-0.0265
-0.0117
0.0033
0.0175
0.0298
0.0392
0.0451
0.0470
0.0450
0.0392
0.0304
0.0192
0.0068
0.0179
0.0293
0.0385
0.0446
0.0470
0.0453
0.0396
0.0303
0.0180
0.0036
-0.0116
-0.0265
-0.0398
-0.0505
-0.0576
-0.0605
-0.0587
-0.0523
-0.0416
-0.0273
-0.0101
0.0086
0.0277
0.0458
0.0617
0.0741
0.0822
0.0851
0.0825
0.0743
0.0608
0.0426
0.0204
-0.0045
-0.0309
-0.0574
-0.0825
-0.1049
-0.1232
-0.1363
-0.1431
-0.1430
-0.1355
-0.1204
-0.0978
-0.0679
-0.0315
0.0108
0.0580
0.1090
0.1628
0.2180
0.2736
0.3284
0.3813
0.4314
0.4778
0.5198
0.5570
0.5887
0.6149
0.6353
0.6499
0.6590
0.6626
0.6612
0.6551
0.6446
0.6304
0.6129
0.5925
0.5698
0.5452
0.5192
0.4922
0.4647
0.4369
0.4093
0.3820
0.3553
0.3294
0.3045
0.2807
0.2582
0.2370
0.2171
0.1986
0.1815
0.1658
0.1515
0.1386
0.1270
0.1168
0.1078
0.1002
0.0937
0.0885
0.0844
0.0816
0.0799
0.0793
0.0799
0.0816
0.0844
0.0885
0.0937
0.1002
0.1078
0.1168
0.1270
0.1386
0.1515
0.1658
0.1815
0.1986
0.2171
0.2370
0.2582
0.2807
0.3045
0.3294
0.3553
0.3820
0.4093
0.4369
0.4647
0.4922
0.5192
0.5452
0.5698
0.5925
0.6129
0.6304
0.6446
0.6551
0.6612
0.6626
0.6590
0.6499
0.6353
0.6149
0.5887
0.5570
0.5198
0.4778
0.4314
0.3813
0.3284
0.2736
0.2180
0.1628
0.1090
0.0580
0.0108
-0.0315
-0.0679
-0.0978
-0.1204
-0.1355
-0.1430
-0.1431
-0.1363
-0.1232
-0.1049
-0.0825
-0.0574
-0.0309
-0.0045
0.0204
0.0426
0.0608
0.0743
0.0825
0.0851
0.0822
0.0741
0.0617
0.0458
0.0277
0.0086
-0.0101
-0.0273
-0.0416
-0.0523
-0.0587
-0.0605
-0.0576
-0.0505
-0.0398
-0.0265
-0.0116
0.0036
0.0180
0.0303
0.0396
0.0453
0.0470
0.0446
0.0385
0.0293
0.0179
0.0280
0.0376
0.0442
0.0469
0.0456
0.0402
0.0310
0.0187
0.0043
-0.0111
-0.0261
-0.0397
-0.0505
-0.0577
-0.0605
-0.0586
-0.0519
-0.0409
-0.0261
-0.0085
0.0106
0.0299
0.0481
0.0637
0.0757
0.0831
0.0850
0.0812
0.0717
0.0568
0.0371
0.0137
-0.0123
-0.0394
-0.0661
-0.0910
-0.1124
-0.1292
-0.1400
-0.1440
-0.1404
-0.1289
-0.1093
-0.0820
-0.0474
-0.0061
0.0408
0.0922
0.1470
0.2039
0.2615
0.3186
0.3740
0.4265
0.4753
0.5194
0.5582
0.5912
0.6180
0.6385
0.6527
0.6607
0.6627
0.6590
0.6502
0.6366
0.6188
0.5974
0.5730
0.5461
0.5172
0.4870
0.4558
0.4241
0.3924
0.3609
0.3300
0.3000
0.2711
0.2434
0.2171
0.1922
0.1689
0.1472
0.1270
0.1084
0.0914
0.0759
0.0618
0.0492
0.0379
0.0279
0.0192
0.0116
0.0052
-0.0002
-0.0045
-0.0079
-0.0102
-0.0116
-0.0121
-0.0116
-0.0102
-0.0079
-0.0045
-0.0002
0.0052
0.0116
0.0192
0.0279
0.0379
0.0492
0.0618
0.0759
0.0914
0.1084
0.1270
0.1472
0.1689
0.1922
0.2171
0.2434
0.2711
0.3000
0.3300
0.3609
0.3924
0.4241
0.4558
0.4870
0.5172
0.5461
0.5730
0.5974
0.6188
0.6366
0.6502
0.6590
0.6627
0.6607
0.6527
0.6385
0.6180
0.5912
0.5582
0.5194
0.4753
0.4265
0.3740
0.3186
0.2615
0.2039
0.1470
0.0922
0.0408
-0.0061
-0.0474
-0.0820
-0.1093
-0.1289
-0.1404
-0.1440
-0.1400
-0.1292
-0.1124
-0.0910
-0.0661
-0.0394
-0.0123
0.0137
0.0371
0.0568
0.0717
0.0812
0.0850
0.0831
0.0757
0.0637
0.0481
0.0299
0.0106
-0.0085
-0.0261
-0.0409
-0.0519
-0.0586
-0.0605
-0.0577
-0.0505
-0.0397
-0.0261
-0.0111
0.0043
0.0187
0.0310
0.0402
0.0456
0.0469
0.0442
0.0376
0.0280
0.0365
0.0436
0.0468
0.0459
0.0408
0.0319
0.0197
0.0053
-0.0102
-0.0255
-0.0392
-0.0503
-0.0576
-0.0605
-0.0585
-0.0517
-0.0404
-0.0253
-0.0074
0.0120
0.0316
0.0498
0.0654
0.0770
0.0837
0.0848
0.0800
0.0692
0.0530
0.0321
0.0075
-0.0194
-0.0471
-0.0739
-0.0984
-0.1188
-0.1339
-0.1424
-0.1434
-0.1364
-0.1209
-0.0970
-0.0652
-0.0259
0.0198
0.0710
0.1262
0.1843
0.2437
0.3030
0.3610
0.4162
0.4676
0.5143
0.5553
0.5901
0.6183
0.6396
0.6539
0.6614
0.6623
0.6570
0.6459
0.6297
0.6088
0.5840
0.5558
0.5250
0.4922
0.4580
0.4229
0.3875
0.3521
0.3173
0.2833
0.2505
0.2190
0.1891
0.1608
0.1343
0.1096
0.0868
0.0657
0.0465
0.0290
0.0131
-0.0012
-0.0139
-0.0253
-0.0354
-0.0442
-0.0519
-0.0586
-0.0642
-0.0690
-0.0729
-0.0761
-0.0784
-0.0801
-0.0811
-0.0815
-0.0811
-0.0801
-0.0784
-0.0761
-0.0729
-0.0690
-0.0642
-0.0586
-0.0519
-0.0442
-0.0354
-0.0253
-0.0139
-0.0012
0.0131
0.0290
0.0465
0.0657
0.0868
0.1096
0.1343
0.1608
0.1891
0.2190
0.2505
0.2833
0.3173
0.3521
0.3875
0.4229
0.4580
0.4922
0.5250
0.5558
0.5840
0.6088
0.6297
0.6459
0.6570
0.6623
0.6614
0.6539
0.6396
0.6183
0.5901
0.5553
0.5143
0.4676
0.4162
0.3610
0.3030
0.2437
0.1843
0.1262
0.0710
0.0198
-0.0259
-0.0652
-0.0970
-0.1209
-0.1364
-0.1434
-0.1424
-0.1339
-0.1188
-0.0984
-0.0739
-0.0471
-0.0194
0.0075
0.0321
0.0530
0.0692
0.0800
0.0848
0.0837
0.0770
0.0654
0.0498
0.0316
0.0120
-0.0074
-0.0253
-0.0404
-0.0517
-0.0585
-0.0605
-0.0576
-0.0503
-0.0392
-0.0255
-0.0102
0.0053
0.0197
0.0319
0.0408
0.0459
0.0468
0.0436
0.0365
0.0428
0.0466
0.0463
0.0416
0.0330
0.0210
0.0066
-0.0090
-0.0245
-0.0385
-0.0499
-0.0574
-0.0605
-0.0586
-0.0517
-0.0402
-0.0249
-0.0067
0.0130
0.0328
0.0511
0.0666
0.0779
0.0841
0.0845
0.0787
0.0669
0.0495
0.0274
0.0019
-0.0258
-0.0539
-0.0808
-0.1047
-0.1241
-0.1375
-0.1437
-0.1418
-0.1313
-0.1119
-0.0839
-0.0477
-0.0041
0.0458
0.1008
0.1595
0.2203
0.2817
0.3422
0.4003
0.4547
0.5043
0.5482
0.5855
0.6157
0.6385
0.6538
0.6616
0.6621
0.6558
0.6431
0.6247
0.6012
0.5734
0.5420
0.5077
0.4713
0.4334
0.3948
0.3559
0.3173
0.2795
0.2427
0.2075
0.1739
0.1422
0.1126
0.0850
0.0596
0.0363
0.0151
-0.0041
-0.0213
-0.0367
-0.0503
-0.0624
-0.0729
-0.0821
-0.0901
-0.0970
-0.1028
-0.1078
-0.1120
-0.1154
-0.1183
-0.1206
-0.1224
-0.1237
-0.1247
-0.1252
-0.1254
-0.1252
-0.1247
-0.1237
-0.1224
-0.1206
-0.1183
-0.1154
-0.1120
-0.1078
-0.1028
-0.0970
-0.0901
-0.0821
-0.0729
-0.0624
-0.0503
-0.0367
-0.0213
-0.0041
0.0151
0.0363
0.0596
0.0850
0.1126
0.1422
0.1739
0.2075
0.2427
0.2795
0.3173
0.3559
0.3948
0.4334
0.4713
0.5077
0.5420
0.5734
0.6012
0.6247
0.6431
0.6558
0.6621
0.6616
0.6538
0.6385
0.6157
0.5855
0.5482
0.5043
0.4547
0.4003
0.3422
0.2817
0.2203
0.1595
0.1008
0.0458
-0.0041
-0.0477
-0.0839
-0.1119
-0.1313
-0.1418
-0.1437
-0.1375
-0.1241
-0.1047
-0.0808
-0.0539
-0.0258
0.0019
0.0274
0.0495
0.0669
0.0787
0.0845
0.0841
0.0779
0.0666
0.0511
0.0328
0.0130
-0.0067
-0.0249
-0.0402
-0.0517
-0.0586
-0.0605
-0.0574
-0.0499
-0.0385
-0.0245
-0.0090
0.0066
0.0210
0.0330
0.0416
0.0463
0.0466
0.0428
0.0463
0.0466
0.0425
0.0343
0.0225
0.0082
-0.0075
-0.0232
-0.0375
-0.0492
-0.0571
-0.0605
-0.0587
-0.0519
-0.0404
-0.0249
-0.0065
0.0135
0.0335
0.0520
0.0674
0.0786
0.0844
0.0842
0.0776
0.0649
0.0465
0.0234
-0.0031
-0.0315
-0.0600
-0.0868
-0.1102
-0.1284
-0.1401
-0.1440
-0.1392
-0.1254
-0.1023
-0.0703
-0.0300
0.0177
0.0715
0.1299
0.1915
0.2546
0.3175
0.3785
0.4362
0.4893
0.5365
0.5770
0.6101
0.6353
0.6523
0.6612
0.6622
0.6557
0.6421
0.6222
0.5967
0.5665
0.5322
0.4949
0.4552
0.4140
0.3721
0.3300
0.2885
0.2479
0.2088
0.1714
0.1361
0.1031
0.0725
0.0443
0.0187
-0.0045
-0.0253
-0.0438
-0.0601
-0.0743
-0.0867
-0.0972
-0.1063
-0.1138
-0.1202
-0.1254
-0.1296
-0.1331
-0.1358
-0.1379
-0.1395
-0.1407
-0.1416
-0.1422
-0.1427
-0.1430
-0.1432
-0.1433
-0.1433
-0.1433
-0.1432
-0.1430
-0.1427
-0.1422
-0.1416
-0.1407
-0.1395
-0.1379
-0.1358
-0.1331
-0.1296
-0.1254
-0.1202
-0.1138
-0.1063
-0.0972
-0.0867
-0.0743
-0.0601
-0.0438
-0.0253
-0.0045
0.0187
0.0443
0.0725
0.1031
0.1361
0.1714
0.2088
0.2479
0.2885
0.3300
0.3721
0.4140
0.4552
0.4949
0.5322
0.5665
0.5967
0.6222
0.6421
0.6557
0.6622
0.6612
0.6523
0.6353
0.6101
0.5770
0.5365
0.4893
0.4362
0.3785
0.3175
0.2546
0.1915
0.1299
0.0715
0.0177
-0.0300
-0.0703
-0.1023
-0.1254
-0.1392
-0.1440
-0.1401
-0.1284
-0.1102
-0.0868
-0.0600
-0.0315
-0.0031
0.0234
0.0465
0.0649
0.0776
0.0842
0.0844
0.0786
0.0674
0.0520
0.0335
0.0135
-0.0065
-0.0249
-0.0404
-0.0519
-0.0587
-0.0605
-0.0571
-0.0492
-0.0375
-0.0232
-0.0075
0.0082
0.0225
0.0343
0.0425
0.0466
0.0463
0.0468
0.0434
0.0357
0.0243
0.0101
-0.0056
-0.0216
-0.0362
-0.0483
-0.0567
-0.0604
-0.0590
-0.0523
-0.0409
-0.0253
-0.0067
0.0135
0.0337
0.0524
0.0679
0.0790
0.0846
0.0839
0.0767
0.0632
0.0439
0.0199
-0.0074
-0.0363
-0.0651
-0.0919
-0.1147
-0.1318
-0.1419
-0.1435
-0.1361
-0.1190
-0.0924
-0.0567
-0.0125
0.0390
0.0963
0.1579
0.2220
0.2869
0.3507
0.4118
0.4687
0.5198
0.5642
0.6010
0.6294
0.6491
0.6601
0.6625
0.6567
0.6431
0.6225
0.5957
0.5635
0.5270
0.4870
0.4444
0.4002
0.3553
0.3103
0.2659
0.2228
0.1815
0.1422
0.1055
0.0713
0.0400
0.0116
-0.0140
-0.0367
-0.0566
-0.0740
-0.0889
-0.1015
-0.1120
-0.1206
-0.1275
-0.1329
-0.1370
-0.1400
-0.1420
-0.1433
-0.1439
-0.1439
-0.1437
-0.1431
-0.1423
-0.1415
-0.1406
-0.1398
-0.1390
-0.1384
-0.1379
-0.1376
-0.1375
-0.1376
-0.1379
-0.1384
-0.1390
-0.1398
-0.1406
-0.1415
-0.1423
-0.1431
-0.1437
-0.1439
-0.1439
-0.1433
-0.1420
-0.1400
-0.1370
-0.1329
-0.1275
-0.1206
-0.1120
-0.1015
-0.0889
-0.0740
-0.0566
-0.0367
-0.0140
0.0116
0.0400
0.0713
0.1055
0.1422
0.1815
0.2228
0.2659
0.3103
0.3553
0.4002
0.4444
0.4870
0.5270
0.5635
0.5957