# vtk DataFile Version 1.0
2D Sin graph datase
ASCII

DATASET STRUCTURED_POINTS
DIMENSIONS 201 201 1
ORIGIN 0 0 0
SPACING 0.05 0.05 0.05

POINT_DATA 40401

SCALARS scalars float
LOOKUP_TABLE default
0.0565
0.0570
0.0530
0.0444
0.0315
0.0152
-0.0037
-0.0240
-0.0442
-0.0629
-0.0787
-0.0902
-0.0963
-0.0961
-0.0888
-0.0742
-0.0523
-0.0234
0.0116
0.0519
0.0962
0.1431
0.1910
0.2384
0.2838
0.3257
0.3628
0.3940
0.4185
0.4356
0.4449
0.4465
0.4404
0.4271
0.4071
0.3814
0.3507
0.3161
0.2787
0.2394
0.1994
0.1596
0.1209
0.0841
0.0498
0.0186
-0.0091
-0.0331
-0.0532
-0.0693
-0.0815
-0.0901
-0.0951
-0.0970
-0.0961
-0.0926
-0.0871
-0.0798
-0.0712
-0.0617
-0.0514
-0.0408
-0.0301
-0.0196
-0.0094
0.0003
0.0093
0.0177
0.0252
0.0319
0.0377
0.0427
0.0469
0.0503
0.0529
0.0549
0.0563
0.0571
0.0574
0.0572
0.0567
0.0559
0.0549
0.0536
0.0523
0.0508
0.0492
0.0477
0.0461
0.0446
0.0432
0.0418
0.0405
0.0394
0.0384
0.0375
0.0368
0.0362
0.0358
0.0355
0.0354
0.0355
0.0358
0.0362
0.0368
0.0375
0.0384
0.0394
0.0405
0.0418
0.0432
0.0446
0.0461
0.0477
0.0492
0.0508
0.0523
0.0536
0.0549
0.0559
0.0567
0.0572
0.0574
0.0571
0.0563
0.0549
0.0529
0.0503
0.0469
0.0427
0.0377
0.0319
0.0252
0.0177
0.0093
0.0003
-0.0094
-0.0196
-0.0301
-0.0408
-0.0514
-0.0617
-0.0712
-0.0798
-0.0871
-0.0926
-0.0961
-0.0970
-0.0951
-0.0901
-0.0815
-0.0693
-0.0532
-0.0331
-0.0091
0.0186
0.0498
0.0841
0.1209
0.1596
0.1994
0.2394
0.2787
0.3161
0.3507
0.3814
0.4071
0.4271
0.4404
0.4465
0.4449
0.4356
0.4185
0.3940
0.3628
0.3257
0.2838
0.2384
0.1910
0.1431
0.0962
0.0519
0.0116
-0.0234
-0.0523
-0.0742
-0.0888
-0.0961
-0.0963
-0.0902
-0.0787
-0.0629
-0.0442
-0.0240
-0.0037
0.0152
0.0315
0.0444
0.0530
0.0570
0.0565
0.0570
0.0529
0.0441
0.0311
0.0144
-0.0048
-0.0253
-0.0457
-0.0644
-0.0801
-0.0912
-0.0967
-0.0955
-0.0871
-0.0711
-0.0476
-0.0171
0.0196
0.0615
0.1072
0.1552
0.2039
0.2517
0.2969
0.3382
0.3741
0.4036
0.4258
0.4402
0.4465
0.4447
0.4351
0.4183
0.3949
0.3658
0.3321
0.2949
0.2553
0.2144
0.1733
0.1331
0.0945
0.0584
0.0254
-0.0040
-0.0295
-0.0509
-0.0680
-0.0810
-0.0900
-0.0953
-0.0971
-0.0958
-0.0919
-0.0857
-0.0777
-0.0682
-0.0578
-0.0468
-0.0354
-0.0241
-0.0130
-0.0024
0.0075
0.0167
0.0250
0.0323
0.0386
0.0439
0.0483
0.0518
0.0543
0.0561
0.0570
0.0574
0.0571
0.0563
0.0551
0.0535
0.0516
0.0495
0.0472
0.0449
0.0424
0.0400
0.0376
0.0352
0.0329
0.0307
0.0287
0.0268
0.0250
0.0234
0.0220
0.0207
0.0197
0.0188
0.0181
0.0177
0.0174
0.0173
0.0174
0.0177
0.0181
0.0188
0.0197
0.0207
0.0220
0.0234
0.0250
0.0268
0.0287
0.0307
0.0329
0.0352
0.0376
0.0400
0.0424
0.0449
0.0472
0.0495
0.0516
0.0535
0.0551
0.0563
0.0571
0.0574
0.0570
0.0561
0.0543
0.0518
0.0483
0.0439
0.0386
0.0323
0.0250
0.0167
0.0075
-0.0024
-0.0130
-0.0241
-0.0354
-0.0468
-0.0578
-0.0682
-0.0777
-0.0857
-0.0919
-0.0958
-0.0971
-0.0953
-0.0900
-0.0810
-0.0680
-0.0509
-0.0295
-0.0040
0.0254
0.0584
0.0945
0.1331
0.1733
0.2144
0.2553
0.2949
0.3321
0.3658
0.3949
0.4183
0.4351
0.4447
0.4465
0.4402
0.4258
0.4036
0.3741
0.3382
0.2969
0.2517
0.2039
0.1552
0.1072
0.0615
0.0196
-0.0171
-0.0476
-0.0711
-0.0871
-0.0955
-0.0967
-0.0912
-0.0801
-0.0644
-0.0457
-0.0253
-0.0048
0.0144
0.0311
0.0441
0.0529
0.0570
0.0530
0.0441
0.0309
0.0140
-0.0054
-0.0262
-0.0467
-0.0656
-0.0811
-0.0920
-0.0969
-0.0949
-0.0855
-0.0682
-0.0434
-0.0114
0.0268
0.0701
0.1171
0.1661
0.2156
0.2636
0.3087
0.3492
0.3839
0.4116
0.4317
0.4434
0.4468
0.4418
0.4289
0.4087
0.3820
0.3499
0.3135
0.2740
0.2326
0.1904
0.1486
0.1083
0.0702
0.0351
0.0037
-0.0237
-0.0467
-0.0653
-0.0794
-0.0892
-0.0950
-0.0970
-0.0958
-0.0916
-0.0850
-0.0764
-0.0663
-0.0552
-0.0434
-0.0314
-0.0194
-0.0079
0.0031
0.0133
0.0225
0.0307
0.0377
0.0436
0.0484
0.0522
0.0548
0.0565
0.0573
0.0573
0.0565
0.0552
0.0533
0.0510
0.0483
0.0454
0.0423
0.0391
0.0358
0.0325
0.0292
0.0260
0.0229
0.0200
0.0172
0.0145
0.0121
0.0098
0.0078
0.0059
0.0042
0.0028
0.0015
0.0004
-0.0004
-0.0011
-0.0016
-0.0019
-0.0020
-0.0019
-0.0016
-0.0011
-0.0004
0.0004
0.0015
0.0028
0.0042
0.0059
0.0078
0.0098
0.0121
0.0145
0.0172
0.0200
0.0229
0.0260
0.0292
0.0325
0.0358
0.0391
0.0423
0.0454
0.0483
0.0510
0.0533
0.0552
0.0565
0.0573
0.0573
0.0565
0.0548
0.0522
0.0484
0.0436
0.0377
0.0307
0.0225
0.0133
0.0031
-0.0079
-0.0194
-0.0314
-0.0434
-0.0552
-0.0663
-0.0764
-0.0850
-0.0916
-0.0958
-0.0970
-0.0950
-0.0892
-0.0794
-0.0653
-0.0467
-0.0237
0.0037
0.0351
0.0702
0.1083
0.1486
0.1904
0.2326
0.2740
0.3135
0.3499
0.3820
0.4087
0.4289
0.4418
0.4468
0.4434
0.4317
0.4116
0.3839
0.3492
0.3087
0.2636
0.2156
0.1661
0.1171
0.0701
0.0268
-0.0114
-0.0434
-0.0682
-0.0855
-0.0949
-0.0969
-0.0920
-0.0811
-0.0656
-0.0467
-0.0262
-0.0054
0.0140
0.0309
0.0441
0.0530
0.0444
0.0311
0.0140
-0.0056
-0.0266
-0.0474
-0.0663
-0.0818
-0.0925
-0.0970
-0.0944
-0.0841
-0.0658
-0.0397
-0.0064
0.0332
0.0779
0.1260
0.1759
0.2259
0.2742
0.3190
0.3588
0.3923
0.4184
0.4362
0.4455
0.4460
0.4380
0.4219
0.3986
0.3689
0.3341
0.2952
0.2537
0.2108
0.1677
0.1255
0.0853
0.0480
0.0143
-0.0153
-0.0404
-0.0608
-0.0765
-0.0876
-0.0943
-0.0970
-0.0960
-0.0919
-0.0850
-0.0761
-0.0655
-0.0537
-0.0413
-0.0287
-0.0162
-0.0042
0.0072
0.0175
0.0268
0.0349
0.0417
0.0473
0.0516
0.0546
0.0565
0.0573
0.0572
0.0561
0.0544
0.0520
0.0491
0.0457
0.0421
0.0382
0.0342
0.0301
0.0260
0.0220
0.0180
0.0142
0.0106
0.0072
0.0039
0.0009
-0.0019
-0.0045
-0.0068
-0.0089
-0.0108
-0.0125
-0.0140
-0.0153
-0.0164
-0.0173
-0.0181
-0.0186
-0.0190
-0.0193
-0.0194
-0.0193
-0.0190
-0.0186
-0.0181
-0.0173
-0.0164
-0.0153
-0.0140
-0.0125
-0.0108
-0.0089
-0.0068
-0.0045
-0.0019
0.0009
0.0039
0.0072
0.0106
0.0142
0.0180
0.0220
0.0260
0.0301
0.0342
0.0382
0.0421
0.0457
0.0491
0.0520
0.0544
0.0561
0.0572
0.0573
0.0565
0.0546
0.0516
0.0473
0.0417
0.0349
0.0268
0.0175
0.0072
-0.0042
-0.0162
-0.0287
-0.0413
-0.0537
-0.0655
-0.0761
-0.0850
-0.0919
-0.0960
-0.0970
-0.0943
-0.0876
-0.0765
-0.0608
-0.0404
-0.0153
0.0143
0.0480
0.0853
0.1255
0.1677
0.2108
0.2537
0.2952
0.3341
0.3689
0.3986
0.4219
0.4380
0.4460
0.4455
0.4362
0.4184
0.3923
0.3588
0.3190
0.2742
0.2259
0.1759
0.1260
0.0779
0.0332
-0.0064
-0.0397
-0.0658
-0.0841
-0.0944
-0.0970
-0.0925
-0.0818
-0.0663
-0.0474
-0.0266
-0.0056
0.0140
0.0311
0.0444
0.0315
0.0144
-0.0054
-0.0266
-0.0476
-0.0667
-0.0822
-0.0928
-0.0970
-0.0939
-0.0829
-0.0637
-0.0365
-0.0021
0.0388
0.0846
0.1337
0.1845
0.2351
0.2835
0.3281
0.3672
0.3995
0.4239
0.4397
0.4465
0.4443
0.4334
0.4144
0.3882
0.3558
0.3184
0.2774
0.2342
0.1901
0.1463
0.1041
0.0644
0.0281
-0.0040
-0.0316
-0.0544
-0.0721
-0.0849
-0.0930
-0.0967
-0.0964
-0.0926
-0.0859
-0.0768
-0.0658
-0.0536
-0.0407
-0.0274
-0.0144
-0.0019
0.0099
0.0205
0.0299
0.0380
0.0446
0.0498
0.0536
0.0561
0.0572
0.0572
0.0562
0.0542
0.0515
0.0481
0.0443
0.0400
0.0354
0.0307
0.0259
0.0211
0.0164
0.0118
0.0074
0.0032
-0.0008
-0.0045
-0.0080
-0.0112
-0.0141
-0.0167
-0.0191
-0.0213
-0.0232
-0.0248
-0.0263
-0.0276
-0.0287
-0.0296
-0.0304
-0.0311
-0.0316
-0.0320
-0.0322
-0.0324
-0.0325
-0.0324
-0.0322
-0.0320
-0.0316
-0.0311
-0.0304
-0.0296
-0.0287
-0.0276
-0.0263
-0.0248
-0.0232
-0.0213
-0.0191
-0.0167
-0.0141
-0.0112
-0.0080
-0.0045
-0.0008
0.0032
0.0074
0.0118
0.0164
0.0211
0.0259
0.0307
0.0354
0.0400
0.0443
0.0481
0.0515
0.0542
0.0562
0.0572
0.0572
0.0561
0.0536
0.0498
0.0446
0.0380
0.0299
0.0205
0.0099
-0.0019
-0.0144
-0.0274
-0.0407
-0.0536
-0.0658
-0.0768
-0.0859
-0.0926
-0.0964
-0.0967
-0.0930
-0.0849
-0.0721
-0.0544
-0.0316
-0.0040
0.0281
0.0644
0.1041
0.1463
0.1901
0.2342
0.2774
0.3184
0.3558
0.3882
0.4144
0.4334
0.4443
0.4465
0.4397
0.4239
0.3995
0.3672
0.3281
0.2835
0.2351
0.1845
0.1337
0.0846
0.0388
-0.0021
-0.0365
-0.0637
-0.0829
-0.0939
-0.0970
-0.0928
-0.0822
-0.0667
-0.0476
-0.0266
-0.0054
0.0144
0.0315
0.0152
-0.0048
-0.0262
-0.0474
-0.0667
-0.0824
-0.0930
-0.0970
-0.0936
-0.0820
-0.0621
-0.0341
0.0015
0.0433
0.0902
0.1403
0.1919
0.2430
0.2916
0.3359
0.3743
0.4055
0.4284
0.4423
0.4468
0.4421
0.4285
0.4068
0.3778
0.3429
0.3033
0.2604
0.2157
0.1707
0.1265
0.0844
0.0454
0.0104
-0.0201
-0.0456
-0.0659
-0.0809
-0.0909
-0.0961
-0.0969
-0.0938
-0.0875
-0.0784
-0.0673
-0.0548
-0.0413
-0.0276
-0.0140
-0.0009
0.0113
0.0223
0.0319
0.0400
0.0465
0.0515
0.0549
0.0568
0.0574
0.0566
0.0548
0.0520
0.0484
0.0441
0.0394
0.0343
0.0289
0.0235
0.0180
0.0127
0.0075
0.0025
-0.0023
-0.0067
-0.0108
-0.0146
-0.0181
-0.0212
-0.0240
-0.0265
-0.0286
-0.0305
-0.0322
-0.0336
-0.0348
-0.0358
-0.0367
-0.0374
-0.0379
-0.0384
-0.0388
-0.0391
-0.0393
-0.0395
-0.0396
-0.0396
-0.0396
-0.0396
-0.0396
-0.0395
-0.0393
-0.0391
-0.0388
-0.0384
-0.0379
-0.0374
-0.0367
-0.0358
-0.0348
-0.0336
-0.0322
-0.0305
-0.0286
-0.0265
-0.0240
-0.0212
-0.0181
-0.0146
-0.0108
-0.0067
-0.0023
0.0025
0.0075
0.0127
0.0180
0.0235
0.0289
0.0343
0.0394
0.0441
0.0484
0.0520
0.0548
0.0566
0.0574
0.0568
0.0549
0.0515
0.0465
0.0400
0.0319
0.0223
0.0113
-0.0009
-0.0140
-0.0276
-0.0413
-0.0548
-0.0673
-0.0784
-0.0875
-0.0938
-0.0969
-0.0961
-0.0909
-0.0809
-0.0659
-0.0456
-0.0201
0.0104
0.0454
0.0844
0.1265
0.1707
0.2157
0.2604
0.3033
0.3429
0.3778
0.4068
0.4285
0.4421
0.4468
0.4423
0.4284
0.4055
0.3743
0.3359
0.2916
0.2430
0.1919
0.1403
0.0902
0.0433
0.0015
-0.0341
-0.0621
-0.0820
-0.0936
-0.0970
-0.0930
-0.0824
-0.0667
-0.0474
-0.0262
-0.0048
0.0152
-0.0037
-0.0253
-0.0467
-0.0663
-0.0822
-0.0930
-0.0971
-0.0935
-0.0815
-0.0610
-0.0322
0.0041
0.0470
0.0948
0.1458
0.1981
0.2496
0.2984
0.3425
0.3803
0.4105
0.4320
0.4441
0.4465
0.4395
0.4234
0.3991
0.3677
0.3305
0.2889
0.2443
0.1984
0.1526
0.1083
0.0665
0.0284
-0.0053
-0.0339
-0.0572
-0.0751
-0.0874
-0.0947
-0.0971
-0.0952
-0.0896
-0.0809
-0.0699
-0.0572
-0.0434
-0.0291
-0.0149
-0.0013
0.0114
0.0228
0.0328
0.0411
0.0477
0.0525
0.0557
0.0572
0.0572
0.0558
0.0533
0.0497
0.0453
0.0403
0.0348
0.0289
0.0229
0.0169
0.0109
0.0051
-0.0004
-0.0057
-0.0106
-0.0150
-0.0191
-0.0228
-0.0260
-0.0289
-0.0314
-0.0335
-0.0352
-0.0367
-0.0379
-0.0388
-0.0395
-0.0400
-0.0404
-0.0406
-0.0408
-0.0408
-0.0408
-0.0407
-0.0407
-0.0406
-0.0405
-0.0404
-0.0403
-0.0403
-0.0403
-0.0403
-0.0403
-0.0404
-0.0405
-0.0406
-0.0407
-0.0407
-0.0408
-0.0408
-0.0408
-0.0406
-0.0404
-0.0400
-0.0395
-0.0388
-0.0379
-0.0367
-0.0352
-0.0335
-0.0314
-0.0289
-0.0260
-0.0228
-0.0191
-0.0150
-0.0106
-0.0057
-0.0004
0.0051
0.0109
0.0169
0.0229
0.0289
0.0348
0.0403
0.0453
0.0497
0.0533
0.0558
0.0572
0.0572
0.0557
0.0525
0.0477
0.0411
0.0328
0.0228
0.0114
-0.0013
-0.0149
-0.0291
-0.0434
-0.0572
-0.0699
-0.0809
-0.0896
-0.0952
-0.0971
-0.0947
-0.0874
-0.0751
-0.0572
-0.0339
-0.0053
0.0284
0.0665
0.1083
0.1526
0.1984
0.2443
0.2889
0.3305
0.3677
0.3991
0.4234
0.4395
0.4465
0.4441
0.4320
0.4105
0.3803
0.3425
0.2984
0.2496
0.1981
0.1458
0.0948
0.0470
0.0041
-0.0322
-0.0610
-0.0815
-0.0935
-0.0971
-0.0930
-0.0822
-0.0663
-0.0467
-0.0253
-0.0037
-0.0240
-0.0457
-0.0656
-0.0818
-0.0928
-0.0970
-0.0935
-0.0813
-0.0605
-0.0312
0.0059
0.0496
0.0982
0.1500
0.2030
0.2550
0.3040
0.3480
0.3853
0.4146
0.4348
0.4453
0.4458
0.4366
0.4183
0.3917
0.3580
0.3187
0.2753
0.2293
0.1824
0.1360
0.0916
0.0504
0.0133
-0.0190
-0.0458
-0.0669
-0.0823
-0.0920
-0.0966
-0.0964
-0.0920
-0.0841
-0.0735
-0.0608
-0.0468
-0.0321
-0.0173
-0.0031
0.0102
0.0223
0.0327
0.0413
0.0481
0.0530
0.0561
0.0573
0.0569
0.0551
0.0519
0.0477
0.0427
0.0369
0.0307
0.0242
0.0177
0.0111
0.0047
-0.0014
-0.0072
-0.0125
-0.0174
-0.0218
-0.0257
-0.0291
-0.0320
-0.0344
-0.0364
-0.0379
-0.0391
-0.0399
-0.0405
-0.0407
-0.0408
-0.0407
-0.0404
-0.0400
-0.0395
-0.0390
-0.0384
-0.0378
-0.0373
-0.0367
-0.0362
-0.0358
-0.0354
-0.0351
-0.0349
-0.0348
-0.0347
-0.0348
-0.0349
-0.0351
-0.0354
-0.0358
-0.0362
-0.0367
-0.0373
-0.0378
-0.0384
-0.0390
-0.0395
-0.0400
-0.0404
-0.0407
-0.0408
-0.0407
-0.0405
-0.0399
-0.0391
-0.0379
-0.0364
-0.0344
-0.0320
-0.0291
-0.0257
-0.0218
-0.0174
-0.0125
-0.0072
-0.0014
0.0047
0.0111
0.0177
0.0242
0.0307
0.0369
0.0427
0.0477
0.0519
0.0551
0.0569
0.0573
0.0561
0.0530
0.0481
0.0413
0.0327
0.0223
0.0102
-0.0031
-0.0173
-0.0321
-0.0468
-0.0608
-0.0735
-0.0841
-0.0920
-0.0964
-0.0966
-0.0920
-0.0823
-0.0669
-0.0458
-0.0190
0.0133
0.0504
0.0916
0.1360
0.1824
0.2293
0.2753
0.3187
0.3580
0.3917
0.4183
0.4366
0.4458
0.4453
0.4348
0.4146
0.3853
0.3480
0.3040
0.2550
0.2030
0.1500
0.0982
0.0496
0.0059
-0.0312
-0.0605
-0.0813
-0.0935
-0.0970
-0.0928
-0.0818
-0.0656
-0.0457
-0.0240
-0.0442
-0.0644
-0.0811
-0.0925
-0.0970
-0.0936
-0.0815
-0.0605
-0.0308
0.0068
0.0511
0.1005
0.1530
0.2067
0.2592
0.3084
0.3524
0.3894
0.4179
0.4370
0.4461
0.4449
0.4338
0.4133
0.3846
0.3489
0.3077
0.2627
0.2154
0.1677
0.1209
0.0766
0.0360
-0.0001
-0.0308
-0.0557
-0.0747
-0.0877
-0.0950
-0.0970
-0.0944
-0.0878
-0.0778
-0.0655
-0.0514
-0.0364
-0.0211
-0.0062
0.0078
0.0205
0.0316
0.0408
0.0479
0.0531
0.0562
0.0573
0.0567
0.0545
0.0509
0.0462
0.0405
0.0342
0.0274
0.0204
0.0133
0.0063
-0.0004
-0.0068
-0.0127
-0.0181
-0.0229
-0.0271
-0.0307
-0.0337
-0.0361
-0.0379
-0.0393
-0.0402
-0.0407
-0.0408
-0.0406
-0.0401
-0.0394
-0.0385
-0.0375
-0.0364
-0.0352
-0.0340
-0.0328
-0.0316
-0.0304
-0.0293
-0.0283
-0.0274
-0.0266
-0.0259
-0.0253
-0.0248
-0.0245
-0.0243
-0.0242
-0.0243
-0.0245
-0.0248
-0.0253
-0.0259
-0.0266
-0.0274
-0.0283
-0.0293
-0.0304
-0.0316
-0.0328
-0.0340
-0.0352
-0.0364
-0.0375
-0.0385
-0.0394
-0.0401
-0.0406
-0.0408
-0.0407
-0.0402
-0.0393
-0.0379
-0.0361
-0.0337
-0.0307
-0.0271
-0.0229
-0.0181
-0.0127
-0.0068
-0.0004
0.0063
0.0133
0.0204
0.0274
0.0342
0.0405
0.0462
0.0509
0.0545
0.0567
0.0573
0.0562
0.0531
0.0479
0.0408
0.0316
0.0205
0.0078
-0.0062
-0.0211
-0.0364
-0.0514
-0.0655
-0.0778
-0.0878
-0.0944
-0.0970
-0.0950
-0.0877
-0.0747
-0.0557
-0.0308
-0.0001
0.0360
0.0766
0.1209
0.1677
0.2154
0.2627
0.3077
0.3489
0.3846
0.4133
0.4338
0.4449
0.4461
0.4370
0.4179
0.3894
0.3524
0.3084
0.2592
0.2067
0.1530
0.1005
0.0511
0.0068
-0.0308
-0.0605
-0.0815
-0.0936
-0.0970
-0.0925
-0.0811
-0.0644
-0.0442
-0.0629
-0.0801
-0.0920
-0.0970
-0.0939
-0.0820
-0.0610
-0.0312
0.0068
0.0516
0.1017
0.1549
0.2091
0.2621
0.3117
0.3558
0.3925
0.4205
0.4387
0.4465
0.4438
0.4310
0.4087
0.3781
0.3405
0.2976
0.2511
0.2028
0.1543
0.1073
0.0632
0.0232
-0.0118
-0.0410
-0.0641
-0.0809
-0.0916
-0.0966
-0.0963
-0.0914
-0.0827
-0.0710
-0.0572
-0.0420
-0.0263
-0.0108
0.0040
0.0175
0.0294
0.0393
0.0471
0.0527
0.0561
0.0573
0.0567
0.0543
0.0504
0.0452
0.0391
0.0322
0.0249
0.0174
0.0098
0.0025
-0.0045
-0.0111
-0.0171
-0.0224
-0.0271
-0.0310
-0.0342
-0.0368
-0.0387
-0.0399
-0.0406
-0.0408
-0.0405
-0.0399
-0.0388
-0.0376
-0.0361
-0.0344
-0.0326
-0.0308
-0.0289
-0.0270
-0.0251
-0.0233
-0.0216
-0.0199
-0.0184
-0.0170
-0.0157
-0.0146
-0.0136
-0.0127
-0.0120
-0.0115
-0.0111
-0.0108
-0.0108
-0.0108
-0.0111
-0.0115
-0.0120
-0.0127
-0.0136
-0.0146
-0.0157
-0.0170
-0.0184
-0.0199
-0.0216
-0.0233
-0.0251
-0.0270
-0.0289
-0.0308
-0.0326
-0.0344
-0.0361
-0.0376
-0.0388
-0.0399
-0.0405
-0.0408
-0.0406
-0.0399
-0.0387
-0.0368
-0.0342
-0.0310
-0.0271
-0.0224
-0.0171
-0.0111
-0.0045
0.0025
0.0098
0.0174
0.0249
0.0322
0.0391
0.0452
0.0504
0.0543
0.0567
0.0573
0.0561
0.0527
0.0471
0.0393
0.0294
0.0175
0.0040
-0.0108
-0.0263
-0.0420
-0.0572
-0.0710
-0.0827
-0.0914
-0.0963
-0.0966
-0.0916
-0.0809
-0.0641
-0.0410
-0.0118
0.0232
0.0632
0.1073
0.1543
0.2028
0.2511
0.2976
0.3405
0.3781
0.4087
0.4310
0.4438
0.4465
0.4387
0.4205
0.3925
0.3558
0.3117
0.2621
0.2091
0.1549
0.1017
0.0516
0.0068
-0.0312
-0.0610
-0.0820
-0.0939
-0.0970
-0.0920
-0.0801
-0.0629
-0.0787
-0.0912
-0.0969
-0.0944
-0.0829
-0.0621
-0.0322
0.0059
0.0511
0.1017
0.1555
0.2103
0.2639
0.3139
0.3581
0.3948
0.4224
0.4399
0.4467
0.4428
0.4284
0.4045
0.3722
0.3330
0.2885
0.2408
0.1914
0.1423
0.0951
0.0513
0.0120
-0.0219
-0.0496
-0.0709
-0.0858
-0.0943
-0.0971
-0.0946
-0.0877
-0.0772
-0.0639
-0.0489
-0.0329
-0.0168
-0.0012
0.0133
0.0261
0.0369
0.0455
0.0518
0.0557
0.0573
0.0568
0.0544
0.0503
0.0449
0.0384
0.0311
0.0233
0.0153
0.0074
-0.0003
-0.0076
-0.0144
-0.0204
-0.0257
-0.0302
-0.0339
-0.0367
-0.0388
-0.0401
-0.0407
-0.0407
-0.0402
-0.0391
-0.0377
-0.0359
-0.0338
-0.0315
-0.0291
-0.0266
-0.0240
-0.0215
-0.0190
-0.0165
-0.0142
-0.0119
-0.0098
-0.0078
-0.0060
-0.0043
-0.0028
-0.0015
-0.0003
0.0007
0.0016
0.0023
0.0028
0.0032
0.0035
0.0035
0.0035
0.0032
0.0028
0.0023
0.0016
0.0007
-0.0003
-0.0015
-0.0028
-0.0043
-0.0060
-0.0078
-0.0098
-0.0119
-0.0142
-0.0165
-0.0190
-0.0215
-0.0240
-0.0266
-0.0291
-0.0315
-0.0338
-0.0359
-0.0377
-0.0391
-0.0402
-0.0407
-0.0407
-0.0401
-0.0388
-0.0367
-0.0339
-0.0302
-0.0257
-0.0204
-0.0144
-0.0076
-0.0003
0.0074
0.0153
0.0233
0.0311
0.0384
0.0449
0.0503
0.0544
0.0568
0.0573
0.0557
0.0518
0.0455
0.0369
0.0261
0.0133
-0.0012
-0.0168
-0.0329
-0.0489
-0.0639
-0.0772
-0.0877
-0.0946
-0.0971
-0.0943
-0.0858
-0.0709
-0.0496
-0.0219
0.0120
0.0513
0.0951
0.1423
0.1914
0.2408
0.2885
0.3330
0.3722
0.4045
0.4284
0.4428
0.4467
0.4399
0.4224
0.3948
0.3581
0.3139
0.2639
0.2103
0.1555
0.1017
0.0511
0.0059
-0.0322
-0.0621
-0.0829
-0.0944
-0.0969
-0.0912
-0.0787
-0.0902
-0.0967
-0.0949
-0.0841
-0.0637
-0.0341
0.0041
0.0496
0.1005
0.1549
0.2103
0.2645
0.3150
0.3595
0.3963
0.4237
0.4408
0.4468
0.4418
0.4262
0.4008
0.3670
0.3263
0.2806
0.2316
0.1814
0.1317
0.0844
0.0408
0.0022
-0.0306
-0.0569
-0.0765
-0.0894
-0.0960
-0.0967
-0.0922
-0.0835
-0.0714
-0.0568
-0.0408
-0.0242
-0.0079
0.0075
0.0214
0.0334
0.0430
0.0502
0.0549
0.0571
0.0570
0.0548
0.0508
0.0452
0.0384
0.0308
0.0226
0.0142
0.0059
-0.0022
-0.0097
-0.0167
-0.0228
-0.0281
-0.0324
-0.0358
-0.0383
-0.0399
-0.0407
-0.0407
-0.0400
-0.0388
-0.0370
-0.0348
-0.0322
-0.0294
-0.0264
-0.0233
-0.0201
-0.0170
-0.0139
-0.0108
-0.0079
-0.0051
-0.0025
-0.0001
0.0022
0.0043
0.0062
0.0079
0.0095
0.0109
0.0121
0.0131
0.0140
0.0148
0.0154
0.0158
0.0161
0.0163
0.0164
0.0163
0.0161
0.0158
0.0154
0.0148
0.0140
0.0131
0.0121
0.0109
0.0095
0.0079
0.0062
0.0043
0.0022
-0.0001
-0.0025
-0.0051
-0.0079
-0.0108
-0.0139
-0.0170
-0.0201
-0.0233
-0.0264
-0.0294
-0.0322
-0.0348
-0.0370
-0.0388
-0.0400
-0.0407
-0.0407
-0.0399
-0.0383
-0.0358
-0.0324
-0.0281
-0.0228
-0.0167
-0.0097
-0.0022
0.0059
0.0142
0.0226
0.0308
0.0384
0.0452
0.0508
0.0548
0.0570
0.0571
0.0549
0.0502
0.0430
0.0334
0.0214
0.0075
-0.0079
-0.0242
-0.0408
-0.0568
-0.0714
-0.0835
-0.0922
-0.0967
-0.0960
-0.0894
-0.0765
-0.0569
-0.0306
0.0022
0.0408
0.0844
0.1317
0.1814
0.2316
0.2806
0.3263
0.3670
0.4008
0.4262
0.4418
0.4468
0.4408
0.4237
0.3963
0.3595
0.3150
0.2645
0.2103
0.1549
0.1005
0.0496
0.0041
-0.0341
-0.0637
-0.0841
-0.0949
-0.0967
-0.0902
-0.0963
-0.0955
-0.0855
-0.0658
-0.0365
0.0015
0.0470
0.0982
0.1530
0.2091
0.2639
0.3150
0.3600
0.3971
0.4245
0.4413
0.4468
0.4410
0.4244
0.3978
0.3627
0.3207
0.2737
0.2237
0.1727
0.1226
0.0751
0.0317
-0.0062
-0.0380
-0.0630
-0.0810
-0.0922
-0.0968
-0.0956
-0.0894
-0.0790
-0.0655
-0.0498
-0.0331
-0.0161
0.0003
0.0154
0.0286
0.0395
0.0479
0.0536
0.0567
0.0573
0.0555
0.0517
0.0462
0.0393
0.0314
0.0229
0.0142
0.0054
-0.0030
-0.0109
-0.0181
-0.0243
-0.0296
-0.0339
-0.0371
-0.0393
-0.0405
-0.0408
-0.0402
-0.0389
-0.0370
-0.0345
-0.0316
-0.0283
-0.0248
-0.0212
-0.0175
-0.0138
-0.0101
-0.0066
-0.0032
0.0001
0.0031
0.0060
0.0086
0.0110
0.0132
0.0152
0.0169
0.0185
0.0199
0.0211
0.0221
0.0230
0.0237
0.0244
0.0249
0.0253
0.0256
0.0258
0.0260
0.0260
0.0260
0.0258
0.0256
0.0253
0.0249
0.0244
0.0237
0.0230
0.0221
0.0211
0.0199
0.0185
0.0169
0.0152
0.0132
0.0110
0.0086
0.0060
0.0031
0.0001
-0.0032
-0.0066
-0.0101
-0.0138
-0.0175
-0.0212
-0.0248
-0.0283
-0.0316
-0.0345
-0.0370
-0.0389
-0.0402
-0.0408
-0.0405
-0.0393
-0.0371
-0.0339
-0.0296
-0.0243
-0.0181
-0.0109
-0.0030
0.0054
0.0142
0.0229
0.0314
0.0393
0.0462
0.0517
0.0555
0.0573
0.0567
0.0536
0.0479
0.0395
0.0286
0.0154
0.0003
-0.0161
-0.0331
-0.0498
-0.0655
-0.0790
-0.0894
-0.0956
-0.0968
-0.0922
-0.0810
-0.0630
-0.0380
-0.0062
0.0317
0.0751
0.1226
0.1727
0.2237
0.2737
0.3207
0.3627
0.3978
0.4244
0.4410
0.4468
0.4413
0.4245
0.3971
0.3600
0.3150
0.2639
0.2091
0.1530
0.0982
0.0470
0.0015
-0.0365
-0.0658
-0.0855
-0.0955
-0.0963
-0.0961
-0.0871
-0.0682
-0.0397
-0.0021
0.0433
0.0948
0.1500
0.2067
0.2621
0.3139
0.3595
0.3971
0.4248
0.4416
0.4468
0.4404
0.4230
0.3955
0.3593
0.3161
0.2680
0.2171
0.1653
0.1147
0.0671
0.0240
-0.0134
-0.0442
-0.0680
-0.0846
-0.0941
-0.0971
-0.0942
-0.0863
-0.0744
-0.0597
-0.0431
-0.0258
-0.0086
0.0077
0.0223
0.0346
0.0445
0.0516
0.0558
0.0574
0.0563
0.0530
0.0477
0.0409
0.0329
0.0242
0.0150
0.0059
-0.0029
-0.0112
-0.0186
-0.0251
-0.0305
-0.0348
-0.0379
-0.0399
-0.0407
-0.0406
-0.0395
-0.0377
-0.0351
-0.0320
-0.0285
-0.0246
-0.0205
-0.0163
-0.0121
-0.0079
-0.0039
0.0000
0.0037
0.0071
0.0103
0.0132
0.0158
0.0182
0.0203
0.0221
0.0237
0.0251
0.0262
0.0272
0.0281
0.0288
0.0293
0.0298
0.0301
0.0304
0.0306
0.0308
0.0309
0.0310
0.0310
0.0311
0.0310
0.0310
0.0309
0.0308
0.0306
0.0304
0.0301
0.0298
0.0293
0.0288
0.0281
0.0272
0.0262
0.0251
0.0237
0.0221
0.0203
0.0182
0.0158
0.0132
0.0103
0.0071
0.0037
0.0000
-0.0039
-0.0079
-0.0121
-0.0163
-0.0205
-0.0246
-0.0285
-0.0320
-0.0351
-0.0377
-0.0395
-0.0406
-0.0407
-0.0399
-0.0379
-0.0348
-0.0305
-0.0251
-0.0186
-0.0112
-0.0029
0.0059
0.0150
0.0242
0.0329
0.0409
0.0477
0.0530
0.0563
0.0574
0.0558
0.0516
0.0445
0.0346
0.0223
0.0077
-0.0086
-0.0258
-0.0431
-0.0597
-0.0744
-0.0863
-0.0942
-0.0971
-0.0941
-0.0846
-0.0680
-0.0442
-0.0134
0.0240
0.0671
0.1147
0.1653
0.2171
0.2680
0.3161
0.3593
0.3955
0.4230
0.4404
0.4468
0.4416
0.4248
0.3971
0.3595
0.3139
0.2621
0.2067
0.1500
0.0948
0.0433
-0.0021
-0.0397
-0.0682
-0.0871
-0.0961
-0.0888
-0.0711
-0.0434
-0.0064
0.0388
0.0902
0.1458
0.2030
0.2592
0.3117
0.3581
0.3963
0.4245
0.4416
0.4468
0.4402
0.4222
0.3939
0.3568
0.3127
0.2636
0.2118
0.1593
0.1083
0.0605
0.0175
-0.0194
-0.0494
-0.0721
-0.0874
-0.0954
-0.0968
-0.0924
-0.0831
-0.0699
-0.0541
-0.0368
-0.0190
-0.0017
0.0143
0.0282
0.0397
0.0484
0.0542
0.0570
0.0570
0.0545
0.0497
0.0432
0.0352
0.0263
0.0169
0.0074
-0.0019
-0.0106
-0.0184
-0.0252
-0.0308
-0.0352
-0.0383
-0.0402
-0.0408
-0.0403
-0.0388
-0.0365
-0.0334
-0.0297
-0.0256
-0.0212
-0.0166
-0.0119
-0.0073
-0.0028
0.0016
0.0057
0.0095
0.0130
0.0161
0.0190
0.0214
0.0236
0.0254
0.0270
0.0282
0.0293
0.0301
0.0307
0.0311
0.0314
0.0316
0.0317
0.0317
0.0316
0.0316
0.0315
0.0314
0.0313
0.0312
0.0311
0.0311
0.0311
0.0311
0.0311
0.0312
0.0313
0.0314
0.0315
0.0316
0.0316
0.0317
0.0317
0.0316
0.0314
0.0311
0.0307
0.0301
0.0293
0.0282
0.0270
0.0254
0.0236
0.0214
0.0190
0.0161
0.0130
0.0095
0.0057
0.0016
-0.0028
-0.0073
-0.0119
-0.0166
-0.0212
-0.0256
-0.0297
-0.0334
-0.0365
-0.0388
-0.0403
-0.0408
-0.0402
-0.0383
-0.0352
-0.0308
-0.0252
-0.0184
-0.0106
-0.0019
0.0074
0.0169
0.0263
0.0352
0.0432
0.0497
0.0545
0.0570
0.0570
0.0542
0.0484
0.0397
0.0282
0.0143
-0.0017
-0.0190
-0.0368
-0.0541
-0.0699
-0.0831
-0.0924
-0.0968
-0.0954
-0.0874
-0.0721
-0.0494
-0.0194
0.0175
0.0605
0.1083
0.1593
0.2118
0.2636
0.3127
0.3568
0.3939
0.4222
0.4402
0.4468
0.4416
0.4245
0.3963
0.3581
0.3117
0.2592
0.2030
0.1458
0.0902
0.0388
-0.0064
-0.0434
-0.0711
-0.0888
-0.0742
-0.0476
-0.0114
0.0332
0.0846
0.1403
0.1981
0.2550
0.3084
0.3558
0.3948
0.4237
0.4413
0.4468
0.4402
0.4219
0.3931
0.3553
0.3103
0.2604
0.2078
0.1546
0.1031
0.0551
0.0122
-0.0243
-0.0537
-0.0754
-0.0895
-0.0963
-0.0963
-0.0905
-0.0798
-0.0656
-0.0489
-0.0310
-0.0129
0.0044
0.0200
0.0334
0.0439
0.0515
0.0560
0.0574
0.0559
0.0520
0.0459
0.0382
0.0293
0.0197
0.0098
0.0001
-0.0090
-0.0173
-0.0246
-0.0305
-0.0352
-0.0384
-0.0403
-0.0408
-0.0401
-0.0383
-0.0356
-0.0321
-0.0279
-0.0233
-0.0184
-0.0133
-0.0082
-0.0032
0.0016
0.0061
0.0104
0.0142
0.0177
0.0207
0.0233
0.0256
0.0274
0.0289
0.0300
0.0308
0.0313
0.0316
0.0317
0.0316
0.0314
0.0310
0.0306
0.0301
0.0296
0.0291
0.0286
0.0281
0.0277
0.0273
0.0269
0.0267
0.0265
0.0263
0.0263
0.0263
0.0265
0.0267
0.0269
0.0273
0.0277
0.0281
0.0286
0.0291
0.0296
0.0301
0.0306
0.0310
0.0314
0.0316
0.0317
0.0316
0.0313
0.0308
0.0300
0.0289
0.0274
0.0256
0.0233
0.0207
0.0177
0.0142
0.0104
0.0061
0.0016
-0.0032
-0.0082
-0.0133
-0.0184
-0.0233
-0.0279
-0.0321
-0.0356
-0.0383
-0.0401
-0.0408
-0.0403
-0.0384
-0.0352
-0.0305
-0.0246
-0.0173
-0.0090
0.0001
0.0098
0.0197
0.0293
0.0382
0.0459
0.0520
0.0559
0.0574
0.0560
0.0515
0.0439
0.0334
0.0200
0.0044
-0.0129
-0.0310
-0.0489
-0.0656
-0.0798
-0.0905
-0.0963
-0.0963
-0.0895
-0.0754
-0.0537
-0.0243
0.0122
0.0551
0.1031
0.1546
0.2078
0.2604
0.3103
0.3553
0.3931
0.4219
0.4402
0.4468
0.4413
0.4237
0.3948
0.3558
0.3084
0.2550
0.1981
0.1403
0.0846
0.0332
-0.0114
-0.0476
-0.0742
-0.0523
-0.0171
0.0268
0.0779
0.1337
0.1919
0.2496
0.3040
0.3524
0.3925
0.4224
0.4408
0.4468
0.4404
0.4222
0.3931
0.3548
0.3092
0.2585
0.2051
0.1513
0.0993
0.0510
0.0080
-0.0282
-0.0571
-0.0780
-0.0911
-0.0967
-0.0956
-0.0885
-0.0768
-0.0615
-0.0441
-0.0256
-0.0073
0.0099
0.0251
0.0377
0.0474
0.0538
0.0570
0.0570
0.0542
0.0490
0.0418
0.0331
0.0234
0.0133
0.0032
-0.0065
-0.0154
-0.0232
-0.0296
-0.0347
-0.0382
-0.0402
-0.0408
-0.0400
-0.0381
-0.0350
-0.0312
-0.0266
-0.0216
-0.0162
-0.0108
-0.0053
0.0000
0.0051
0.0098
0.0141
0.0179
0.0213
0.0241
0.0265
0.0284
0.0298
0.0308
0.0314
0.0317
0.0316
0.0313
0.0308
0.0301
0.0293
0.0283
0.0273
0.0263
0.0252
0.0242
0.0232
0.0222
0.0214
0.0205
0.0198
0.0192
0.0187
0.0183
0.0180
0.0178
0.0177
0.0178
0.0180
0.0183
0.0187
0.0192
0.0198
0.0205
0.0214
0.0222
0.0232
0.0242
0.0252
0.0263
0.0273
0.0283
0.0293
0.0301
0.0308
0.0313
0.0316
0.0317
0.0314
0.0308
0.0298
0.0284
0.0265
0.0241
0.0213
0.0179
0.0141
0.0098
0.0051
0.0000
-0.0053
-0.0108
-0.0162
-0.0216
-0.0266
-0.0312
-0.0350
-0.0381
-0.0400
-0.0408
-0.0402
-0.0382
-0.0347
-0.0296
-0.0232
-0.0154
-0.0065
0.0032
0.0133
0.0234
0.0331
0.0418
0.0490
0.0542
0.0570
0.0570
0.0538
0.0474
0.0377
0.0251
0.0099
-0.0073
-0.0256
-0.0441
-0.0615
-0.0768
-0.0885
-0.0956
-0.0967
-0.0911
-0.0780
-0.0571
-0.0282
0.0080
0.0510
0.0993
0.1513
0.2051
0.2585
0.3092
0.3548
0.3931
0.4222
0.4404
0.4468
0.4408
0.4224
0.3925
0.3524
0.3040
0.2496
0.1919
0.1337
0.0779
0.0268
-0.0171
-0.0523
-0.0234
0.0196
0.0701
0.1260
0.1845
0.2430
0.2984
0.3480
0.3894
0.4205
0.4399
0.4468
0.4410
0.4230
0.3939
0.3553
0.3092
0.2579
0.2038
0.1493
0.0967
0.0480
0.0050
-0.0312
-0.0597
-0.0800
-0.0923
-0.0970
-0.0947
-0.0867
-0.0739
-0.0578
-0.0397
-0.0208
-0.0024
0.0146
0.0294
0.0413
0.0501
0.0554
0.0573
0.0561
0.0521
0.0457
0.0375
0.0279
0.0177
0.0072
-0.0030
-0.0125
-0.0210
-0.0281
-0.0337
-0.0377
-0.0400
-0.0408
-0.0401
-0.0381
-0.0349
-0.0308
-0.0259
-0.0205
-0.0148
-0.0089
-0.0032
0.0024
0.0077
0.0126
0.0169
0.0207
0.0239
0.0266
0.0286
0.0301
0.0311
0.0316
0.0317
0.0313
0.0307
0.0297
0.0286
0.0273
0.0258
0.0242
0.0226
0.0210
0.0194
0.0179
0.0164
0.0149
0.0136
0.0124
0.0112
0.0102
0.0094
0.0086
0.0080
0.0075
0.0072
0.0070
0.0069
0.0070
0.0072
0.0075
0.0080
0.0086
0.0094
0.0102
0.0112
0.0124
0.0136
0.0149
0.0164
0.0179
0.0194