# vtk DataFile Version 1.0
2D Sin graph datase
ASCII

DATASET STRUCTURED_POINTS
DIMENSIONS 201 201 1
ORIGIN 0 0 0
SPACING 0.05 0.05 0.05

POINT_DATA 40401

SCALARS scalars float
LOOKUP_TABLE default
0.0178
0.0002
-0.0190
-0.0384
-0.0566
-0.0721
-0.0835
-0.0896
-0.0895
-0.0824
-0.0680
-0.0463
-0.0178
0.0168
0.0565
0.1000
0.1458
0.1922
0.2377
0.2807
0.3196
0.3531
0.3802
0.4000
0.4121
0.4161
0.4121
0.4006
0.3819
0.3571
0.3269
0.2926
0.2551
0.2159
0.1759
0.1362
0.0980
0.0620
0.0290
-0.0005
-0.0260
-0.0472
-0.0641
-0.0766
-0.0850
-0.0894
-0.0903
-0.0880
-0.0829
-0.0756
-0.0665
-0.0561
-0.0449
-0.0332
-0.0214
-0.0099
0.0011
0.0113
0.0205
0.0287
0.0357
0.0415
0.0461
0.0496
0.0519
0.0531
0.0534
0.0528
0.0514
0.0494
0.0468
0.0438
0.0404
0.0367
0.0329
0.0289
0.0250
0.0210
0.0171
0.0134
0.0097
0.0063
0.0030
-0.0001
-0.0029
-0.0055
-0.0080
-0.0102
-0.0122
-0.0140
-0.0156
-0.0170
-0.0182
-0.0193
-0.0202
-0.0210
-0.0216
-0.0220
-0.0224
-0.0226
-0.0226
-0.0226
-0.0224
-0.0220
-0.0216
-0.0210
-0.0202
-0.0193
-0.0182
-0.0170
-0.0156
-0.0140
-0.0122
-0.0102
-0.0080
-0.0055
-0.0029
-0.0001
0.0030
0.0063
0.0097
0.0134
0.0171
0.0210
0.0250
0.0289
0.0329
0.0367
0.0404
0.0438
0.0468
0.0494
0.0514
0.0528
0.0534
0.0531
0.0519
0.0496
0.0461
0.0415
0.0357
0.0287
0.0205
0.0113
0.0011
-0.0099
-0.0214
-0.0332
-0.0449
-0.0561
-0.0665
-0.0756
-0.0829
-0.0880
-0.0903
-0.0894
-0.0850
-0.0766
-0.0641
-0.0472
-0.0260
-0.0005
0.0290
0.0620
0.0980
0.1362
0.1759
0.2159
0.2551
0.2926
0.3269
0.3571
0.3819
0.4006
0.4121
0.4161
0.4121
0.4000
0.3802
0.3531
0.3196
0.2807
0.2377
0.1922
0.1458
0.1000
0.0565
0.0168
-0.0178
-0.0463
-0.0680
-0.0824
-0.0895
-0.0896
-0.0835
-0.0721
-0.0566
-0.0384
-0.0190
0.0002
0.0178
0.0002
-0.0192
-0.0388
-0.0571
-0.0727
-0.0840
-0.0898
-0.0892
-0.0814
-0.0661
-0.0435
-0.0138
0.0220
0.0629
0.1075
0.1541
0.2011
0.2469
0.2897
0.3281
0.3606
0.3863
0.4043
0.4141
0.4157
0.4091
0.3947
0.3733
0.3457
0.3131
0.2765
0.2373
0.1967
0.1559
0.1159
0.0779
0.0426
0.0108
-0.0169
-0.0403
-0.0592
-0.0734
-0.0832
-0.0887
-0.0904
-0.0885
-0.0837
-0.0763
-0.0670
-0.0562
-0.0445
-0.0323
-0.0200
-0.0080
0.0033
0.0138
0.0233
0.0315
0.0384
0.0440
0.0482
0.0512
0.0529
0.0534
0.0529
0.0515
0.0492
0.0463
0.0429
0.0390
0.0347
0.0303
0.0257
0.0211
0.0165
0.0120
0.0077
0.0035
-0.0004
-0.0041
-0.0076
-0.0107
-0.0137
-0.0163
-0.0187
-0.0209
-0.0228
-0.0245
-0.0261
-0.0274
-0.0285
-0.0295
-0.0303
-0.0310
-0.0316
-0.0321
-0.0325
-0.0328
-0.0330
-0.0331
-0.0331
-0.0331
-0.0330
-0.0328
-0.0325
-0.0321
-0.0316
-0.0310
-0.0303
-0.0295
-0.0285
-0.0274
-0.0261
-0.0245
-0.0228
-0.0209
-0.0187
-0.0163
-0.0137
-0.0107
-0.0076
-0.0041
-0.0004
0.0035
0.0077
0.0120
0.0165
0.0211
0.0257
0.0303
0.0347
0.0390
0.0429
0.0463
0.0492
0.0515
0.0529
0.0534
0.0529
0.0512
0.0482
0.0440
0.0384
0.0315
0.0233
0.0138
0.0033
-0.0080
-0.0200
-0.0323
-0.0445
-0.0562
-0.0670
-0.0763
-0.0837
-0.0885
-0.0904
-0.0887
-0.0832
-0.0734
-0.0592
-0.0403
-0.0169
0.0108
0.0426
0.0779
0.1159
0.1559
0.1967
0.2373
0.2765
0.3131
0.3457
0.3733
0.3947
0.4091
0.4157
0.4141
0.4043
0.3863
0.3606
0.3281
0.2897
0.2469
0.2011
0.1541
0.1075
0.0629
0.0220
-0.0138
-0.0435
-0.0661
-0.0814
-0.0892
-0.0898
-0.0840
-0.0727
-0.0571
-0.0388
-0.0192
0.0002
-0.0190
-0.0388
-0.0573
-0.0729
-0.0842
-0.0899
-0.0890
-0.0806
-0.0647
-0.0411
-0.0104
0.0264
0.0684
0.1139
0.1613
0.2089
0.2549
0.2976
0.3354
0.3670
0.3913
0.4076
0.4154
0.4146
0.4054
0.3885
0.3645
0.3344
0.2995
0.2611
0.2203
0.1786
0.1371
0.0971
0.0595
0.0252
-0.0052
-0.0311
-0.0524
-0.0688
-0.0804
-0.0875
-0.0903
-0.0893
-0.0849
-0.0778
-0.0685
-0.0575
-0.0454
-0.0327
-0.0199
-0.0074
0.0044
0.0153
0.0250
0.0333
0.0402
0.0456
0.0496
0.0521
0.0533
0.0532
0.0520
0.0498
0.0468
0.0431
0.0388
0.0341
0.0292
0.0240
0.0189
0.0137
0.0087
0.0038
-0.0008
-0.0052
-0.0093
-0.0130
-0.0165
-0.0196
-0.0224
-0.0249
-0.0270
-0.0289
-0.0306
-0.0320
-0.0332
-0.0342
-0.0350
-0.0356
-0.0362
-0.0366
-0.0369
-0.0372
-0.0374
-0.0375
-0.0376
-0.0377
-0.0378
-0.0378
-0.0378
-0.0378
-0.0378
-0.0377
-0.0376
-0.0375
-0.0374
-0.0372
-0.0369
-0.0366
-0.0362
-0.0356
-0.0350
-0.0342
-0.0332
-0.0320
-0.0306
-0.0289
-0.0270
-0.0249
-0.0224
-0.0196
-0.0165
-0.0130
-0.0093
-0.0052
-0.0008
0.0038
0.0087
0.0137
0.0189
0.0240
0.0292
0.0341
0.0388
0.0431
0.0468
0.0498
0.0520
0.0532
0.0533
0.0521
0.0496
0.0456
0.0402
0.0333
0.0250
0.0153
0.0044
-0.0074
-0.0199
-0.0327
-0.0454
-0.0575
-0.0685
-0.0778
-0.0849
-0.0893
-0.0903
-0.0875
-0.0804
-0.0688
-0.0524
-0.0311
-0.0052
0.0252
0.0595
0.0971
0.1371
0.1786
0.2203
0.2611
0.2995
0.3344
0.3645
0.3885
0.4054
0.4146
0.4154
0.4076
0.3913
0.3670
0.3354
0.2976
0.2549
0.2089
0.1613
0.1139
0.0684
0.0264
-0.0104
-0.0411
-0.0647
-0.0806
-0.0890
-0.0899
-0.0842
-0.0729
-0.0573
-0.0388
-0.0190
-0.0384
-0.0571
-0.0729
-0.0843
-0.0900
-0.0888
-0.0801
-0.0636
-0.0393
-0.0078
0.0300
0.0729
0.1193
0.1674
0.2156
0.2618
0.3044
0.3417
0.3724
0.3955
0.4101
0.4160
0.4130
0.4015
0.3821
0.3557
0.3234
0.2865
0.2463
0.2042
0.1616
0.1198
0.0799
0.0429
0.0097
-0.0192
-0.0432
-0.0623
-0.0763
-0.0853
-0.0898
-0.0900
-0.0865
-0.0799
-0.0708
-0.0597
-0.0474
-0.0343
-0.0210
-0.0080
0.0043
0.0156
0.0256
0.0342
0.0412
0.0467
0.0504
0.0527
0.0534
0.0528
0.0510
0.0482
0.0444
0.0400
0.0350
0.0296
0.0240
0.0183
0.0126
0.0071
0.0017
-0.0034
-0.0082
-0.0127
-0.0167
-0.0204
-0.0236
-0.0265
-0.0289
-0.0310
-0.0328
-0.0343
-0.0354
-0.0363
-0.0370
-0.0375
-0.0378
-0.0379
-0.0380
-0.0380
-0.0378
-0.0377
-0.0375
-0.0373
-0.0371
-0.0369
-0.0367
-0.0366
-0.0365
-0.0364
-0.0364
-0.0364
-0.0365
-0.0366
-0.0367
-0.0369
-0.0371
-0.0373
-0.0375
-0.0377
-0.0378
-0.0380
-0.0380
-0.0379
-0.0378
-0.0375
-0.0370
-0.0363
-0.0354
-0.0343
-0.0328
-0.0310
-0.0289
-0.0265
-0.0236
-0.0204
-0.0167
-0.0127
-0.0082
-0.0034
0.0017
0.0071
0.0126
0.0183
0.0240
0.0296
0.0350
0.0400
0.0444
0.0482
0.0510
0.0528
0.0534
0.0527
0.0504
0.0467
0.0412
0.0342
0.0256
0.0156
0.0043
-0.0080
-0.0210
-0.0343
-0.0474
-0.0597
-0.0708
-0.0799
-0.0865
-0.0900
-0.0898
-0.0853
-0.0763
-0.0623
-0.0432
-0.0192
0.0097
0.0429
0.0799
0.1198
0.1616
0.2042
0.2463
0.2865
0.3234
0.3557
0.3821
0.4015
0.4130
0.4160
0.4101
0.3955
0.3724
0.3417
0.3044
0.2618
0.2156
0.1674
0.1193
0.0729
0.0300
-0.0078
-0.0393
-0.0636
-0.0801
-0.0888
-0.0900
-0.0843
-0.0729
-0.0571
-0.0384
-0.0566
-0.0727
-0.0842
-0.0900
-0.0888
-0.0798
-0.0629
-0.0381
-0.0059
0.0327
0.0764
0.1236
0.1724
0.2211
0.2675
0.3101
0.3470
0.3770
0.3989
0.4120
0.4161
0.4111
0.3974
0.3758
0.3472
0.3128
0.2741
0.2324
0.1892
0.1459
0.1038
0.0642
0.0280
-0.0041
-0.0313
-0.0534
-0.0702
-0.0818
-0.0884
-0.0904
-0.0882
-0.0825
-0.0739
-0.0630
-0.0506
-0.0372
-0.0234
-0.0099
0.0030
0.0148
0.0253
0.0343
0.0416
0.0471
0.0509
0.0529
0.0534
0.0524
0.0501
0.0467
0.0423
0.0373
0.0317
0.0257
0.0195
0.0134
0.0072
0.0013
-0.0043
-0.0095
-0.0144
-0.0187
-0.0226
-0.0260
-0.0290
-0.0314
-0.0335
-0.0351
-0.0363
-0.0371
-0.0377
-0.0380
-0.0380
-0.0378
-0.0375
-0.0370
-0.0364
-0.0358
-0.0351
-0.0344
-0.0337
-0.0330
-0.0323
-0.0317
-0.0312
-0.0307
-0.0303
-0.0299
-0.0297
-0.0296
-0.0295
-0.0296
-0.0297
-0.0299
-0.0303
-0.0307
-0.0312
-0.0317
-0.0323
-0.0330
-0.0337
-0.0344
-0.0351
-0.0358
-0.0364
-0.0370
-0.0375
-0.0378
-0.0380
-0.0380
-0.0377
-0.0371
-0.0363
-0.0351
-0.0335
-0.0314
-0.0290
-0.0260
-0.0226
-0.0187
-0.0144
-0.0095
-0.0043
0.0013
0.0072
0.0134
0.0195
0.0257
0.0317
0.0373
0.0423
0.0467
0.0501
0.0524
0.0534
0.0529
0.0509
0.0471
0.0416
0.0343
0.0253
0.0148
0.0030
-0.0099
-0.0234
-0.0372
-0.0506
-0.0630
-0.0739
-0.0825
-0.0882
-0.0904
-0.0884
-0.0818
-0.0702
-0.0534
-0.0313
-0.0041
0.0280
0.0642
0.1038
0.1459
0.1892
0.2324
0.2741
0.3128
0.3472
0.3758
0.3974
0.4111
0.4161
0.4120
0.3989
0.3770
0.3470
0.3101
0.2675
0.2211
0.1724
0.1236
0.0764
0.0327
-0.0059
-0.0381
-0.0629
-0.0798
-0.0888
-0.0900
-0.0842
-0.0727
-0.0566
-0.0721
-0.0840
-0.0899
-0.0888
-0.0798
-0.0627
-0.0374
-0.0047
0.0346
0.0790
0.1269
0.1763
0.2255
0.2722
0.3147
0.3514
0.3806
0.4016
0.4134
0.4158
0.4090
0.3933
0.3697
0.3391
0.3029
0.2625
0.2194
0.1753
0.1314
0.0893
0.0500
0.0147
-0.0161
-0.0417
-0.0619
-0.0765
-0.0858
-0.0900
-0.0896
-0.0852
-0.0775
-0.0671
-0.0548
-0.0412
-0.0271
-0.0130
0.0005
0.0129
0.0241
0.0336
0.0412
0.0471
0.0510
0.0530
0.0533
0.0521
0.0494
0.0455
0.0407
0.0351
0.0289
0.0225
0.0158
0.0092
0.0027
-0.0034
-0.0092
-0.0145
-0.0193
-0.0235
-0.0272
-0.0303
-0.0328
-0.0348
-0.0363
-0.0372
-0.0378
-0.0380
-0.0378
-0.0374
-0.0367
-0.0358
-0.0348
-0.0336
-0.0324
-0.0311
-0.0298
-0.0284
-0.0271
-0.0259
-0.0247
-0.0236
-0.0226
-0.0217
-0.0209
-0.0202
-0.0196
-0.0192
-0.0189
-0.0187
-0.0186
-0.0187
-0.0189
-0.0192
-0.0196
-0.0202
-0.0209
-0.0217
-0.0226
-0.0236
-0.0247
-0.0259
-0.0271
-0.0284
-0.0298
-0.0311
-0.0324
-0.0336
-0.0348
-0.0358
-0.0367
-0.0374
-0.0378
-0.0380
-0.0378
-0.0372
-0.0363
-0.0348
-0.0328
-0.0303
-0.0272
-0.0235
-0.0193
-0.0145
-0.0092
-0.0034
0.0027
0.0092
0.0158
0.0225
0.0289
0.0351
0.0407
0.0455
0.0494
0.0521
0.0533
0.0530
0.0510
0.0471
0.0412
0.0336
0.0241
0.0129
0.0005
-0.0130
-0.0271
-0.0412
-0.0548
-0.0671
-0.0775
-0.0852
-0.0896
-0.0900
-0.0858
-0.0765
-0.0619
-0.0417
-0.0161
0.0147
0.0500
0.0893
0.1314
0.1753
0.2194
0.2625
0.3029
0.3391
0.3697
0.3933
0.4090
0.4158
0.4134
0.4016
0.3806
0.3514
0.3147
0.2722
0.2255
0.1763
0.1269
0.0790
0.0346
-0.0047
-0.0374
-0.0627
-0.0798
-0.0888
-0.0899
-0.0840
-0.0721
-0.0835
-0.0898
-0.0890
-0.0801
-0.0629
-0.0374
-0.0043
0.0355
0.0805
0.1290
0.1791
0.2287
0.2758
0.3184
0.3548
0.3836
0.4037
0.4143
0.4153
0.4069
0.3894
0.3639
0.3315
0.2936
0.2517
0.2075
0.1625
0.1183
0.0762
0.0374
0.0029
-0.0266
-0.0505
-0.0688
-0.0813
-0.0884
-0.0904
-0.0878
-0.0814
-0.0719
-0.0599
-0.0464
-0.0320
-0.0175
-0.0033
0.0099
0.0217
0.0319
0.0402
0.0465
0.0507
0.0530
0.0533
0.0520
0.0491
0.0449
0.0396
0.0335
0.0269
0.0200
0.0129
0.0059
-0.0008
-0.0072
-0.0131
-0.0185
-0.0232
-0.0272
-0.0306
-0.0333
-0.0353
-0.0368
-0.0376
-0.0380
-0.0379
-0.0373
-0.0364
-0.0353
-0.0338
-0.0322
-0.0304
-0.0286
-0.0267
-0.0247
-0.0228
-0.0209
-0.0191
-0.0173
-0.0156
-0.0141
-0.0126
-0.0113
-0.0101
-0.0090
-0.0081
-0.0073
-0.0067
-0.0062
-0.0058
-0.0056
-0.0056
-0.0056
-0.0058
-0.0062
-0.0067
-0.0073
-0.0081
-0.0090
-0.0101
-0.0113
-0.0126
-0.0141
-0.0156
-0.0173
-0.0191
-0.0209
-0.0228
-0.0247
-0.0267
-0.0286
-0.0304
-0.0322
-0.0338
-0.0353
-0.0364
-0.0373
-0.0379
-0.0380
-0.0376
-0.0368
-0.0353
-0.0333
-0.0306
-0.0272
-0.0232
-0.0185
-0.0131
-0.0072
-0.0008
0.0059
0.0129
0.0200
0.0269
0.0335
0.0396
0.0449
0.0491
0.0520
0.0533
0.0530
0.0507
0.0465
0.0402
0.0319
0.0217
0.0099
-0.0033
-0.0175
-0.0320
-0.0464
-0.0599
-0.0719
-0.0814
-0.0878
-0.0904
-0.0884
-0.0813
-0.0688
-0.0505
-0.0266
0.0029
0.0374
0.0762
0.1183
0.1625
0.2075
0.2517
0.2936
0.3315
0.3639
0.3894
0.4069
0.4153
0.4143
0.4037
0.3836
0.3548
0.3184
0.2758
0.2287
0.1791
0.1290
0.0805
0.0355
-0.0043
-0.0374
-0.0629
-0.0801
-0.0890
-0.0898
-0.0835
-0.0896
-0.0892
-0.0806
-0.0636
-0.0381
-0.0047
0.0355
0.0810
0.1301
0.1808
0.2309
0.2784
0.3211
0.3575
0.3859
0.4053
0.4150
0.4147
0.4048
0.3858
0.3586
0.3246
0.2852
0.2420
0.1967
0.1510
0.1065
0.0645
0.0262
-0.0074
-0.0356
-0.0579
-0.0743
-0.0849
-0.0898
-0.0897
-0.0852
-0.0770
-0.0658
-0.0526
-0.0382
-0.0232
-0.0084
0.0056
0.0183
0.0293
0.0384
0.0454
0.0502
0.0528
0.0534
0.0521
0.0491
0.0447
0.0391
0.0327
0.0257
0.0183
0.0109
0.0035
-0.0035
-0.0101
-0.0161
-0.0214
-0.0260
-0.0299
-0.0330
-0.0353
-0.0369
-0.0377
-0.0380
-0.0377
-0.0369
-0.0356
-0.0340
-0.0321
-0.0299
-0.0276
-0.0252
-0.0227
-0.0201
-0.0176
-0.0152
-0.0128
-0.0105
-0.0083
-0.0062
-0.0043
-0.0025
-0.0009
0.0006
0.0020
0.0032
0.0042
0.0051
0.0058
0.0065
0.0069
0.0073
0.0075
0.0075
0.0075
0.0073
0.0069
0.0065
0.0058
0.0051
0.0042
0.0032
0.0020
0.0006
-0.0009
-0.0025
-0.0043
-0.0062
-0.0083
-0.0105
-0.0128
-0.0152
-0.0176
-0.0201
-0.0227
-0.0252
-0.0276
-0.0299
-0.0321
-0.0340
-0.0356
-0.0369
-0.0377
-0.0380
-0.0377
-0.0369
-0.0353
-0.0330
-0.0299
-0.0260
-0.0214
-0.0161
-0.0101
-0.0035
0.0035
0.0109
0.0183
0.0257
0.0327
0.0391
0.0447
0.0491
0.0521
0.0534
0.0528
0.0502
0.0454
0.0384
0.0293
0.0183
0.0056
-0.0084
-0.0232
-0.0382
-0.0526
-0.0658
-0.0770
-0.0852
-0.0897
-0.0898
-0.0849
-0.0743
-0.0579
-0.0356
-0.0074
0.0262
0.0645
0.1065
0.1510
0.1967
0.2420
0.2852
0.3246
0.3586
0.3858
0.4048
0.4147
0.4150
0.4053
0.3859
0.3575
0.3211
0.2784
0.2309
0.1808
0.1301
0.0810
0.0355
-0.0047
-0.0381
-0.0636
-0.0806
-0.0892
-0.0896
-0.0895
-0.0814
-0.0647
-0.0393
-0.0059
0.0346
0.0805
0.1301
0.1814
0.2320
0.2799
0.3230
0.3593
0.3875
0.4064
0.4154
0.4141
0.4030
0.3825
0.3539
0.3184
0.2776
0.2333
0.1871
0.1408
0.0960
0.0541
0.0163
-0.0163
-0.0432
-0.0641
-0.0787
-0.0874
-0.0904
-0.0883
-0.0820
-0.0721
-0.0596
-0.0454
-0.0302
-0.0148
-0.0000
0.0136
0.0256
0.0357
0.0436
0.0491
0.0524
0.0534
0.0524
0.0495
0.0451
0.0393
0.0327
0.0253
0.0176
0.0097
0.0020
-0.0053
-0.0121
-0.0182
-0.0236
-0.0281
-0.0318
-0.0346
-0.0365
-0.0376
-0.0380
-0.0377
-0.0367
-0.0352
-0.0333
-0.0310
-0.0284
-0.0256
-0.0226
-0.0196
-0.0165
-0.0134
-0.0105
-0.0076
-0.0048
-0.0021
0.0004
0.0027
0.0048
0.0068
0.0086
0.0102
0.0117
0.0130
0.0141
0.0151
0.0160
0.0167
0.0173
0.0178
0.0182
0.0185
0.0186
0.0187
0.0186
0.0185
0.0182
0.0178
0.0173
0.0167
0.0160
0.0151
0.0141
0.0130
0.0117
0.0102
0.0086
0.0068
0.0048
0.0027
0.0004
-0.0021
-0.0048
-0.0076
-0.0105
-0.0134
-0.0165
-0.0196
-0.0226
-0.0256
-0.0284
-0.0310
-0.0333
-0.0352
-0.0367
-0.0377
-0.0380
-0.0376
-0.0365
-0.0346
-0.0318
-0.0281
-0.0236
-0.0182
-0.0121
-0.0053
0.0020
0.0097
0.0176
0.0253
0.0327
0.0393
0.0451
0.0495
0.0524
0.0534
0.0524
0.0491
0.0436
0.0357
0.0256
0.0136
-0.0000
-0.0148
-0.0302
-0.0454
-0.0596
-0.0721
-0.0820
-0.0883
-0.0904
-0.0874
-0.0787
-0.0641
-0.0432
-0.0163
0.0163
0.0541
0.0960
0.1408
0.1871
0.2333
0.2776
0.3184
0.3539
0.3825
0.4030
0.4141
0.4154
0.4064
0.3875
0.3593
0.3230
0.2799
0.2320
0.1814
0.1301
0.0805
0.0346
-0.0059
-0.0393
-0.0647
-0.0814
-0.0895
-0.0824
-0.0661
-0.0411
-0.0078
0.0327
0.0790
0.1290
0.1808
0.2320
0.2804
0.3238
0.3604
0.3886
0.4072
0.4156
0.4136
0.4014
0.3798
0.3499
0.3131
0.2711
0.2256
0.1786
0.1317
0.0867
0.0450
0.0078
-0.0240
-0.0497
-0.0691
-0.0821
-0.0890
-0.0902
-0.0864
-0.0784
-0.0671
-0.0534
-0.0383
-0.0226
-0.0070
0.0076
0.0207
0.0319
0.0409
0.0475
0.0516
0.0533
0.0528
0.0503
0.0459
0.0402
0.0333
0.0257
0.0176
0.0095
0.0014
-0.0062
-0.0133
-0.0196
-0.0250
-0.0295
-0.0331
-0.0356
-0.0372
-0.0380
-0.0378
-0.0369
-0.0354
-0.0333
-0.0307
-0.0278
-0.0246
-0.0211
-0.0176
-0.0141
-0.0105
-0.0071
-0.0037
-0.0005
0.0025
0.0054
0.0080
0.0104
0.0126
0.0146
0.0164
0.0180
0.0194
0.0206
0.0217
0.0226
0.0234
0.0241
0.0246
0.0251
0.0255
0.0258
0.0260
0.0262
0.0263
0.0263
0.0263
0.0262
0.0260
0.0258
0.0255
0.0251
0.0246
0.0241
0.0234
0.0226
0.0217
0.0206
0.0194
0.0180
0.0164
0.0146
0.0126
0.0104
0.0080
0.0054
0.0025
-0.0005
-0.0037
-0.0071
-0.0105
-0.0141
-0.0176
-0.0211
-0.0246
-0.0278
-0.0307
-0.0333
-0.0354
-0.0369
-0.0378
-0.0380
-0.0372
-0.0356
-0.0331
-0.0295
-0.0250
-0.0196
-0.0133
-0.0062
0.0014
0.0095
0.0176
0.0257
0.0333
0.0402
0.0459
0.0503
0.0528
0.0533
0.0516
0.0475
0.0409
0.0319
0.0207
0.0076
-0.0070
-0.0226
-0.0383
-0.0534
-0.0671
-0.0784
-0.0864
-0.0902
-0.0890
-0.0821
-0.0691
-0.0497
-0.0240
0.0078
0.0450
0.0867
0.1317
0.1786
0.2256
0.2711
0.3131
0.3499
0.3798
0.4014
0.4136
0.4156
0.4072
0.3886
0.3604
0.3238
0.2804
0.2320
0.1808
0.1290
0.0790
0.0327
-0.0078
-0.0411
-0.0661
-0.0824
-0.0680
-0.0435
-0.0104
0.0300
0.0764
0.1269
0.1791
0.2309
0.2799
0.3238
0.3608
0.3891
0.4077
0.4157
0.4131
0.4001
0.3776
0.3466
0.3086
0.2655
0.2191
0.1713
0.1240
0.0787
0.0371
0.0004
-0.0306
-0.0552
-0.0732
-0.0847
-0.0899
-0.0895
-0.0841
-0.0746
-0.0621
-0.0474
-0.0315
-0.0154
0.0001
0.0144
0.0269
0.0372
0.0450
0.0503
0.0530
0.0532
0.0512
0.0472
0.0416
0.0347
0.0269
0.0186
0.0101
0.0017
-0.0063
-0.0137
-0.0202
-0.0258
-0.0304
-0.0339
-0.0363
-0.0376
-0.0380
-0.0374
-0.0361
-0.0340
-0.0313
-0.0282
-0.0247
-0.0209
-0.0170
-0.0130
-0.0090
-0.0051
-0.0013
0.0023
0.0057
0.0088
0.0117
0.0144
0.0167
0.0188
0.0207
0.0223
0.0237
0.0248
0.0258
0.0266
0.0273
0.0278
0.0283
0.0286
0.0289
0.0291
0.0292
0.0293
0.0294
0.0294
0.0294
0.0294
0.0294
0.0294
0.0294
0.0294
0.0294
0.0293
0.0292
0.0291
0.0289
0.0286
0.0283
0.0278
0.0273
0.0266
0.0258
0.0248
0.0237
0.0223
0.0207
0.0188
0.0167
0.0144
0.0117
0.0088
0.0057
0.0023
-0.0013
-0.0051
-0.0090
-0.0130
-0.0170
-0.0209
-0.0247
-0.0282
-0.0313
-0.0340
-0.0361
-0.0374
-0.0380
-0.0376
-0.0363
-0.0339
-0.0304
-0.0258
-0.0202
-0.0137
-0.0063
0.0017
0.0101
0.0186
0.0269
0.0347
0.0416
0.0472
0.0512
0.0532
0.0530
0.0503
0.0450
0.0372
0.0269
0.0144
0.0001
-0.0154
-0.0315
-0.0474
-0.0621
-0.0746
-0.0841
-0.0895
-0.0899
-0.0847
-0.0732
-0.0552
-0.0306
0.0004
0.0371
0.0787
0.1240
0.1713
0.2191
0.2655
0.3086
0.3466
0.3776
0.4001
0.4131
0.4157
0.4077
0.3891
0.3608
0.3238
0.2799
0.2309
0.1791
0.1269
0.0764
0.0300
-0.0104
-0.0435
-0.0680
-0.0463
-0.0138
0.0264
0.0729
0.1236
0.1763
0.2287
0.2784
0.3230
0.3604
0.3891
0.4078
0.4158
0.4128
0.3993
0.3759
0.3440
0.3051
0.2611
0.2138
0.1653
0.1174
0.0720
0.0305
-0.0058
-0.0361
-0.0597
-0.0765
-0.0866
-0.0903
-0.0884
-0.0815
-0.0708
-0.0571
-0.0416
-0.0252
-0.0089
0.0065
0.0204
0.0322
0.0415
0.0482
0.0521
0.0534
0.0522
0.0488
0.0435
0.0368
0.0289
0.0204
0.0116
0.0028
-0.0055
-0.0133
-0.0201
-0.0260
-0.0307
-0.0343
-0.0366
-0.0378
-0.0379
-0.0370
-0.0353
-0.0327
-0.0296
-0.0259
-0.0219
-0.0176
-0.0132
-0.0088
-0.0045
-0.0003
0.0037
0.0075
0.0109
0.0141
0.0169
0.0194
0.0216
0.0234
0.0250
0.0263
0.0273
0.0281
0.0287
0.0291
0.0293
0.0295
0.0295
0.0294
0.0293
0.0292
0.0290
0.0288
0.0286
0.0284
0.0282
0.0281
0.0280
0.0279
0.0279
0.0279
0.0280
0.0281
0.0282
0.0284
0.0286
0.0288
0.0290
0.0292
0.0293
0.0294
0.0295
0.0295
0.0293
0.0291
0.0287
0.0281
0.0273
0.0263
0.0250
0.0234
0.0216
0.0194
0.0169
0.0141
0.0109
0.0075
0.0037
-0.0003
-0.0045
-0.0088
-0.0132
-0.0176
-0.0219
-0.0259
-0.0296
-0.0327
-0.0353
-0.0370
-0.0379
-0.0378
-0.0366
-0.0343
-0.0307
-0.0260
-0.0201
-0.0133
-0.0055
0.0028
0.0116
0.0204
0.0289
0.0368
0.0435
0.0488
0.0522
0.0534
0.0521
0.0482
0.0415
0.0322
0.0204
0.0065
-0.0089
-0.0252
-0.0416
-0.0571
-0.0708
-0.0815
-0.0884
-0.0903
-0.0866
-0.0765
-0.0597
-0.0361
-0.0058
0.0305
0.0720
0.1174
0.1653
0.2138
0.2611
0.3051
0.3440
0.3759
0.3993
0.4128
0.4158
0.4078
0.3891
0.3604
0.3230
0.2784
0.2287
0.1763
0.1236
0.0729
0.0264
-0.0138
-0.0463
-0.0178
0.0220
0.0684
0.1193
0.1724
0.2255
0.2758
0.3211
0.3593
0.3886
0.4077
0.4158
0.4128
0.3989
0.3749
0.3423
0.3026
0.2577
0.2096
0.1604
0.1121
0.0664
0.0249
-0.0110
-0.0407
-0.0634
-0.0791
-0.0880
-0.0904
-0.0870
-0.0789
-0.0670
-0.0524
-0.0362
-0.0194
-0.0030
0.0123
0.0256
0.0366
0.0450
0.0505
0.0531
0.0531
0.0505
0.0458
0.0394
0.0317
0.0230
0.0140
0.0049
-0.0039
-0.0121
-0.0194
-0.0256
-0.0306
-0.0343
-0.0367
-0.0379
-0.0378
-0.0367
-0.0346
-0.0317
-0.0281
-0.0240
-0.0196
-0.0149
-0.0101
-0.0053
-0.0007
0.0037
0.0079
0.0117
0.0151
0.0182
0.0209
0.0231
0.0250
0.0265
0.0277
0.0285
0.0291
0.0294
0.0295
0.0294
0.0291
0.0288
0.0283
0.0277
0.0271
0.0265
0.0259
0.0253
0.0247
0.0241
0.0236
0.0232
0.0228
0.0225
0.0223
0.0222
0.0222
0.0222
0.0223
0.0225
0.0228
0.0232
0.0236
0.0241
0.0247
0.0253
0.0259
0.0265
0.0271
0.0277
0.0283
0.0288
0.0291
0.0294
0.0295
0.0294
0.0291
0.0285
0.0277
0.0265
0.0250
0.0231
0.0209
0.0182
0.0151
0.0117
0.0079
0.0037
-0.0007
-0.0053
-0.0101
-0.0149
-0.0196
-0.0240
-0.0281
-0.0317
-0.0346
-0.0367
-0.0378
-0.0379
-0.0367
-0.0343
-0.0306
-0.0256
-0.0194
-0.0121
-0.0039
0.0049
0.0140
0.0230
0.0317
0.0394
0.0458
0.0505
0.0531
0.0531
0.0505
0.0450
0.0366
0.0256
0.0123
-0.0030
-0.0194
-0.0362
-0.0524
-0.0670
-0.0789
-0.0870
-0.0904
-0.0880
-0.0791
-0.0634
-0.0407
-0.0110
0.0249
0.0664
0.1121
0.1604
0.2096
0.2577
0.3026
0.3423
0.3749
0.3989
0.4128
0.4158
0.4077
0.3886
0.3593
0.3211
0.2758
0.2255
0.1724
0.1193
0.0684
0.0220
-0.0178
0.0168
0.0629
0.1139
0.1674
0.2211
0.2722
0.3184
0.3575
0.3875
0.4072
0.4157
0.4128
0.3989
0.3746
0.3415
0.3011
0.2554
0.2066
0.1568
0.1079
0.0620
0.0205
-0.0153
-0.0444
-0.0664
-0.0812
-0.0889
-0.0901
-0.0856
-0.0763
-0.0634
-0.0480
-0.0312
-0.0141
0.0024
0.0173
0.0301
0.0404
0.0477
0.0520
0.0534
0.0521
0.0483
0.0425
0.0350
0.0264
0.0172
0.0078
-0.0014
-0.0101
-0.0179
-0.0245
-0.0299
-0.0340
-0.0366
-0.0379
-0.0378
-0.0366
-0.0343
-0.0311
-0.0271
-0.0227
-0.0178
-0.0128
-0.0076
-0.0026
0.0023
0.0069
0.0112
0.0150
0.0184
0.0213
0.0238
0.0258
0.0273
0.0284
0.0291
0.0294
0.0295
0.0292
0.0288
0.0281
0.0273
0.0263
0.0253
0.0242
0.0230
0.0219
0.0208
0.0197
0.0187
0.0177
0.0168
0.0160
0.0153
0.0147
0.0142
0.0138
0.0135
0.0134
0.0133
0.0134
0.0135
0.0138
0.0142
0.0147
0.0153
0.0160
0.0168
0.0177
0.0187
0.0197
0.0208
0.0219
0.0230
0.0242
0.0253
0.0263
0.0273
0.0281
0.0288
0.0292
0.0295
0.0294
0.0291
0.0284
0.0273
0.0258
0.0238
0.0213
0.0184
0.0150
0.0112
0.0069
0.0023
-0.0026
-0.0076
-0.0128
-0.0178
-0.0227
-0.0271
-0.0311
-0.0343
-0.0366
-0.0378
-0.0379
-0.0366
-0.0340
-0.0299
-0.0245
-0.0179
-0.0101
-0.0014
0.0078
0.0172
0.0264
0.0350
0.0425
0.0483
0.0521
0.0534
0.0520
0.0477
0.0404
0.0301
0.0173
0.0024
-0.0141
-0.0312
-0.0480
-0.0634
-0.0763
-0.0856
-0.0901
-0.0889
-0.0812
-0.0664
-0.0444
-0.0153
0.0205
0.0620
0.1079
0.1568
0.2066
0.2554
0.3011
0.3415
0.3746
0.3989
0.4128
0.4157
0.4072
0.3875
0.3575
0.3184
0.2722
0.2211
0.1674
0.1139
0.0629
0.0168
0.0565
0.1075
0.1613
0.2156
0.2675
0.3147
0.3548
0.3859
0.4064
0.4156
0.4131
0.3993
0.3749
0.3415
0.3006
0.2543
0.2048
0.1543
0.1050
0.0587
0.0171
-0.0186
-0.0474
-0.0688
-0.0827
-0.0895
-0.0897
-0.0841
-0.0739
-0.0601
-0.0439
-0.0266
-0.0093
0.0071
0.0217
0.0340
0.0434
0.0497
0.0529
0.0532
0.0506
0.0457
0.0388
0.0305
0.0213
0.0116
0.0020
-0.0072
-0.0156
-0.0228
-0.0288
-0.0333
-0.0363
-0.0378
-0.0379
-0.0366
-0.0342
-0.0309
-0.0267
-0.0219
-0.0167
-0.0113
-0.0058
-0.0005
0.0046
0.0094
0.0137
0.0175
0.0209
0.0236
0.0258
0.0275
0.0286
0.0293
0.0295
0.0293
0.0288
0.0280
0.0269
0.0257
0.0242
0.0227
0.0211
0.0195
0.0178
0.0162
0.0146
0.0131
0.0116
0.0103
0.0090
0.0079
0.0068
0.0059
0.0051
0.0044
0.0039
0.0034
0.0031
0.0029
0.0029
0.0029
0.0031
0.0034
0.0039
0.0044
0.0051
0.0059
0.0068
0.0079
0.0090
0.0103
0.0116
0.0131
0.0146
0.0162
0.0178
0.0195
0.0211
0.0227
0.0242
0.0257
0.0269
0.0280
0.0288
0.0293
0.0295
0.0293
0.0286
0.0275
0.0258
0.0236
0.0209
0.0175
0.0137
0.0094
0.0046
-0.0005
-0.0058
-0.0113
-0.0167
-0.0219
-0.0267
-0.0309
-0.0342
-0.0366
-0.0379
-0.0378
-0.0363
-0.0333
-0.0288
-0.0228
-0.0156
-0.0072
0.0020
0.0116
0.0213
0.0305
0.0388
0.0457
0.0506
0.0532
0.0529
0.0497
0.0434
0.0340
0.0217
0.0071
-0.0093
-0.0266
-0.0439
-0.0601
-0.0739
-0.0841
-0.0897
-0.0895
-0.0827
-0.0688
-0.0474
-0.0186
0.0171
0.0587
0.1050
0.1543
0.2048
0.2543
0.3006
0.3415
0.3749
0.3993
0.4131
0.4156
0.4064
0.3859
0.3548
0.3147
0.2675
0.2156
0.1613
0.1075
0.0565
0.1000
0.1541
0.2089
0.2618
0.3101
0.3514
0.3836
0.4053
0.4154
0.4136
0.4001
0.3759
0.3423
0.3011
0.2543
0.2042
0.1531
0.1032
0.0565
0.0147
-0.0210
-0.0496
-0.0706
-0.0839
-0.0899
-0.0892
-0.0827
-0.0716
-0.0570
-0.0403
-0.0226
-0.0051
0.0113
0.0255
0.0372
0.0458
0.0512
0.0534
0.0525
0.0488
0.0429
0.0351
0.0260
0.0163
0.0063
-0.0034
-0.0124
-0.0204
-0.0270
-0.0321
-0.0356
-0.0376
-0.0380
-0.0369
-0.0345
-0.0311
-0.0267
-0.0217
-0.0162
-0.0105
-0.0048
0.0008
0.0062
0.0111
0.0155
0.0194
0.0226
0.0252
0.0272
0.0285
0.0293
0.0295
0.0292
0.0285
0.0275
0.0261
0.0244
0.0226
0.0206
0.0185
0.0164
0.0143
0.0122
0.0101
0.0081
0.0062
0.0044
0.0027
0.0012
-0.0002
-0.0015
-0.0027
-0.0037
-0.0046
-0.0054
-0.0060
-0.0066
-0.0070
-0.0073
-0.0074
-0.0075
-0.0074
-0.0073
-0.0070
-0.0066
-0.0060
-0.0054
-0.0046
-0.0037
-0.0027
-0.0015
-0.0002
0.0012
0.0027
0.0044
0.0062
0.0081
0.0101
0.0122
0.0143
0.0164
0.0185
0.0206
0.0226
0.0244
0.0261
0.0275
0.0285
0.0292
0.0295
0.0293
0.0285
0.0272
0.0252
0.0226
0.0194
0.0155
0.0111
0.0062
0.0008
-0.0048
-0.0105
-0.0162
-0.0217
-0.0267
-0.0311
-0.0345
-0.0369
-0.0380
-0.0376
-0.0356
-0.0321
-0.0270
-0.0204
-0.0124
-0.0034
0.0063
0.0163
0.0260
0.0351
0.0429
0.0488
0.0525
0.0534
0.0512
0.0458
0.0372
0.0255
0.0113
-0.0051
-0.0226
-0.0403
-0.0570
-0.0716
-0.0827
-0.0892
-0.0899
-0.0839
-0.0706
-0.0496
-0.0210
0.0147
0.0565
0.1032
0.1531
0.2042
0.2543
0.3011
0.3423
0.3759
0.4001
0.4136
0.4154
0.4053
0.3836
0.3514
0.3101
0.2618
0.2089
0.1541
0.1000
0.1458
0.2011
0.2549
0.3044
0.3470
0.3806
0.4037
0.4150
0.4141
0.4014
0.3776
0.3440
0.3026
0.2554
0.2048
0.1531
0.1027
0.0554
0.0132
-0.0226
-0.0511
-0.0719
-0.0848
-0.0901
-0.0887
-0.0815
-0.0696
-0.0543
-0.0370
-0.0190
-0.0014
0.0148
0.0288
0.0399
0.0477
0.0522
0.0534
0.0515
0.0468
0.0399
0.0314
0.0217
0.0115
0.0013
-0.0083
-0.0170
-0.0244
-0.0303
-0.0346
-0.0371
-0.0380
-0.0373
-0.0351
-0.0317
-0.0273
-0.0221
-0.0164
-0.0105
-0.0044
0.0015
0.0071
0.0122
0.0167
0.0206
0.0238
0.0263
0.0280
0.0291
0.0295
0.0293
0.0286
0.0274
0.0258
0.0238
0.0216
0.0193
0.0168
0.0142
0.0116
0.0091
0.0066
0.0042
0.0019
-0.0003
-0.0023
-0.0042
-0.0059
-0.0075
-0.0089
-0.0102
-0.0113
-0.0123
-0.0132
-0.0139
-0.0145
-0.0151
-0.0155
-0.0158
-0.0160
-0.0161
-0.0162
-0.0161
-0.0160
-0.0158
-0.0155
-0.0151
-0.0145
-0.0139
-0.0132
-0.0123
-0.0113
-0.0102
-0.0089
-0.0075
-0.0059
-0.0042
-0.0023
-0.0003
0.0019
0.0042
0.0066
0.0091
0.0116
0.0142
0.0168
0.0193
0.0216
0.0238
0.0258
0.0274
0.0286
0.0293
0.0295
0.0291
0.0280
0.0263
0.0238
0.0206
0.0167
0.0122
0.0071
0.0015
-0.0044
-0.0105
-0.0164
-0.0221
-0.0273
-0.0317
-0.0351
-0.0373
-0.0380
-0.0371
-0.0346
-0.0303
-0.0244
-0.0170
-0.0083
0.0013
0.0115
0.0217
0.0314
0.0399
0.0468
0.0515
0.0534
0.0522
0.0477
0.0399
0.0288
0.0148
-0.0014
-0.0190
-0.0370
-0.0543
-0.0696
-0.0815
-0.0887
-0.0901
-0.0848
-0.0719
-0.0511
-0.0226
0.0132
0.0554
0.1027
0.1531
0.2048
0.2554
0.3026
0.3440
0.3776
0.4014
0.4141
0.4150
0.4037
0.3806
0.3470
0.3044
0.2549
0.2011
0.1458
0.1922
0.2469
0.2976
0.3417
0.3770
0.4016
0.4143
0.4147
0.4030
0.3798
0.3466
0.3051
0.2577
0.2066
0.1543
0.1032
0.0554
0.0127
-0.0234
-0.0521
-0.0727
-0.0853
-0.0903
-0.0883
-0.0804
-0.0679
-0.0521
-0.0343
-0.0160
0.0018
0.0179
0.0315
0.0420
0.0492
0.0529
0.0531
0.0503
0.0447
0.0370
0.0277
0.0176
0.0071
-0.0032
-0.0127
-0.0210
-0.0278
-0.0330
-0.0363
-0.0379
-0.0377
-0.0359
-0.0327
-0.0284
-0.0232
-0.0173
-0.0111
-0.0048
0.0014
0.0073
0.0126
0.0173
0.0213
0.0245
0.0269
0.0285
0.0294
0.0295
0.0289
0.0277
0.0261
0.0240
0.0216
0.0189
0.0160
0.0131
0.0101
0.0071
0.0042
0.0014
-0.0012
-0.0037
-0.0060
-0.0082
-0.0101
-0.0119
-0.0135
-0.0149
-0.0161
-0.0172
-0.0181
-0.0189
-0.0196
-0.0202
-0.0206
-0.0210
-0.0213
-0.0216
-0.0218
-0.0219
-0.0220
-0.0220
-0.0220
-0.0219
-0.0218
-0.0216
-0.0213
-0.0210
-0.0206
-0.0202
-0.0196