# vtk DataFile Version 1.0
2D Sin graph datase
ASCII

DATASET STRUCTURED_POINTS
DIMENSIONS 201 201 1
ORIGIN 0 0 0
SPACING 0.05 0.05 0.05

POINT_DATA 40401

SCALARS scalars float
LOOKUP_TABLE default
-0.0450
-0.0474
-0.0462
-0.0412
-0.0327
-0.0213
-0.0076
0.0075
0.0227
0.0371
0.0496
0.0592
0.0651
0.0667
0.0637
0.0560
0.0439
0.0280
0.0091
-0.0119
-0.0337
-0.0551
-0.0747
-0.0914
-0.1039
-0.1113
-0.1127
-0.1076
-0.0956
-0.0767
-0.0512
-0.0195
0.0176
0.0593
0.1045
0.1521
0.2008
0.2493
0.2966
0.3414
0.3827
0.4196
0.4515
0.4776
0.4976
0.5113
0.5186
0.5197
0.5147
0.5040
0.4881
0.4676
0.4431
0.4152
0.3846
0.3520
0.3179
0.2831
0.2481
0.2133
0.1794
0.1466
0.1153
0.0858
0.0582
0.0328
0.0096
-0.0113
-0.0300
-0.0465
-0.0608
-0.0730
-0.0833
-0.0918
-0.0986
-0.1039
-0.1078
-0.1105
-0.1122
-0.1129
-0.1128
-0.1121
-0.1108
-0.1091
-0.1071
-0.1048
-0.1024
-0.0999
-0.0974
-0.0948
-0.0924
-0.0901
-0.0880
-0.0860
-0.0843
-0.0828
-0.0816
-0.0806
-0.0799
-0.0794
-0.0793
-0.0794
-0.0799
-0.0806
-0.0816
-0.0828
-0.0843
-0.0860
-0.0880
-0.0901
-0.0924
-0.0948
-0.0974
-0.0999
-0.1024
-0.1048
-0.1071
-0.1091
-0.1108
-0.1121
-0.1128
-0.1129
-0.1122
-0.1105
-0.1078
-0.1039
-0.0986
-0.0918
-0.0833
-0.0730
-0.0608
-0.0465
-0.0300
-0.0113
0.0096
0.0328
0.0582
0.0858
0.1153
0.1466
0.1794
0.2133
0.2481
0.2831
0.3179
0.3520
0.3846
0.4152
0.4431
0.4676
0.4881
0.5040
0.5147
0.5197
0.5186
0.5113
0.4976
0.4776
0.4515
0.4196
0.3827
0.3414
0.2966
0.2493
0.2008
0.1521
0.1045
0.0593
0.0176
-0.0195
-0.0512
-0.0767
-0.0956
-0.1076
-0.1127
-0.1113
-0.1039
-0.0914
-0.0747
-0.0551
-0.0337
-0.0119
0.0091
0.0280
0.0439
0.0560
0.0637
0.0667
0.0651
0.0592
0.0496
0.0371
0.0227
0.0075
-0.0076
-0.0213
-0.0327
-0.0412
-0.0462
-0.0474
-0.0450
-0.0474
-0.0462
-0.0411
-0.0324
-0.0207
-0.0068
0.0084
0.0239
0.0383
0.0507
0.0601
0.0656
0.0666
0.0628
0.0543
0.0413
0.0246
0.0049
-0.0167
-0.0389
-0.0603
-0.0796
-0.0955
-0.1068
-0.1124
-0.1117
-0.1041
-0.0893
-0.0674
-0.0388
-0.0040
0.0362
0.0806
0.1282
0.1776
0.2275
0.2767
0.3238
0.3677
0.4074
0.4419
0.4707
0.4930
0.5088
0.5177
0.5199
0.5156
0.5052
0.4891
0.4679
0.4423
0.4130
0.3808
0.3464
0.3104
0.2737
0.2368
0.2003
0.1648
0.1306
0.0982
0.0679
0.0398
0.0142
-0.0089
-0.0295
-0.0474
-0.0629
-0.0760
-0.0869
-0.0955
-0.1023
-0.1072
-0.1105
-0.1124
-0.1130
-0.1125
-0.1111
-0.1089
-0.1061
-0.1028
-0.0992
-0.0953
-0.0912
-0.0871
-0.0829
-0.0789
-0.0749
-0.0711
-0.0675
-0.0642
-0.0611
-0.0583
-0.0558
-0.0536
-0.0517
-0.0502
-0.0489
-0.0481
-0.0476
-0.0474
-0.0476
-0.0481
-0.0489
-0.0502
-0.0517
-0.0536
-0.0558
-0.0583
-0.0611
-0.0642
-0.0675
-0.0711
-0.0749
-0.0789
-0.0829
-0.0871
-0.0912
-0.0953
-0.0992
-0.1028
-0.1061
-0.1089
-0.1111
-0.1125
-0.1130
-0.1124
-0.1105
-0.1072
-0.1023
-0.0955
-0.0869
-0.0760
-0.0629
-0.0474
-0.0295
-0.0089
0.0142
0.0398
0.0679
0.0982
0.1306
0.1648
0.2003
0.2368
0.2737
0.3104
0.3464
0.3808
0.4130
0.4423
0.4679
0.4891
0.5052
0.5156
0.5199
0.5177
0.5088
0.4930
0.4707
0.4419
0.4074
0.3677
0.3238
0.2767
0.2275
0.1776
0.1282
0.0806
0.0362
-0.0040
-0.0388
-0.0674
-0.0893
-0.1041
-0.1117
-0.1124
-0.1068
-0.0955
-0.0796
-0.0603
-0.0389
-0.0167
0.0049
0.0246
0.0413
0.0543
0.0628
0.0666
0.0656
0.0601
0.0507
0.0383
0.0239
0.0084
-0.0068
-0.0207
-0.0324
-0.0411
-0.0462
-0.0474
-0.0462
-0.0411
-0.0323
-0.0205
-0.0063
0.0091
0.0247
0.0392
0.0516
0.0607
0.0659
0.0664
0.0620
0.0527
0.0390
0.0215
0.0011
-0.0210
-0.0435
-0.0648
-0.0838
-0.0989
-0.1089
-0.1129
-0.1101
-0.1001
-0.0826
-0.0578
-0.0262
0.0115
0.0544
0.1014
0.1510
0.2019
0.2528
0.3022
0.3488
0.3914
0.4291
0.4609
0.4863
0.5047
0.5159
0.5200
0.5170
0.5075
0.4917
0.4704
0.4442
0.4140
0.3805
0.3445
0.3069
0.2683
0.2297
0.1915
0.1544
0.1189
0.0854
0.0542
0.0256
-0.0003
-0.0233
-0.0435
-0.0608
-0.0753
-0.0872
-0.0966
-0.1036
-0.1085
-0.1116
-0.1129
-0.1127
-0.1112
-0.1086
-0.1051
-0.1009
-0.0962
-0.0910
-0.0855
-0.0799
-0.0742
-0.0685
-0.0629
-0.0574
-0.0522
-0.0472
-0.0425
-0.0381
-0.0341
-0.0304
-0.0270
-0.0240
-0.0213
-0.0190
-0.0171
-0.0155
-0.0142
-0.0134
-0.0128
-0.0127
-0.0128
-0.0134
-0.0142
-0.0155
-0.0171
-0.0190
-0.0213
-0.0240
-0.0270
-0.0304
-0.0341
-0.0381
-0.0425
-0.0472
-0.0522
-0.0574
-0.0629
-0.0685
-0.0742
-0.0799
-0.0855
-0.0910
-0.0962
-0.1009
-0.1051
-0.1086
-0.1112
-0.1127
-0.1129
-0.1116
-0.1085
-0.1036
-0.0966
-0.0872
-0.0753
-0.0608
-0.0435
-0.0233
-0.0003
0.0256
0.0542
0.0854
0.1189
0.1544
0.1915
0.2297
0.2683
0.3069
0.3445
0.3805
0.4140
0.4442
0.4704
0.4917
0.5075
0.5170
0.5200
0.5159
0.5047
0.4863
0.4609
0.4291
0.3914
0.3488
0.3022
0.2528
0.2019
0.1510
0.1014
0.0544
0.0115
-0.0262
-0.0578
-0.0826
-0.1001
-0.1101
-0.1129
-0.1089
-0.0989
-0.0838
-0.0648
-0.0435
-0.0210
0.0011
0.0215
0.0390
0.0527
0.0620
0.0664
0.0659
0.0607
0.0516
0.0392
0.0247
0.0091
-0.0063
-0.0205
-0.0323
-0.0411
-0.0462
-0.0412
-0.0324
-0.0205
-0.0062
0.0094
0.0252
0.0398
0.0522
0.0612
0.0661
0.0662
0.0613
0.0514
0.0370
0.0187
-0.0023
-0.0248
-0.0475
-0.0688
-0.0873
-0.1016
-0.1105
-0.1129
-0.1081
-0.0957
-0.0756
-0.0481
-0.0137
0.0268
0.0722
0.1213
0.1727
0.2248
0.2763
0.3256
0.3714
0.4125
0.4479
0.4768
0.4985
0.5128
0.5194
0.5186
0.5106
0.4959
0.4750
0.4488
0.4180
0.3836
0.3464
0.3072
0.2671
0.2267
0.1869
0.1482
0.1113
0.0766
0.0444
0.0152
-0.0110
-0.0341
-0.0539
-0.0706
-0.0843
-0.0950
-0.1030
-0.1085
-0.1118
-0.1129
-0.1123
-0.1102
-0.1067
-0.1021
-0.0967
-0.0906
-0.0840
-0.0771
-0.0700
-0.0629
-0.0558
-0.0488
-0.0420
-0.0355
-0.0293
-0.0234
-0.0179
-0.0128
-0.0081
-0.0038
0.0001
0.0037
0.0068
0.0096
0.0120
0.0141
0.0158
0.0172
0.0183
0.0191
0.0195
0.0197
0.0195
0.0191
0.0183
0.0172
0.0158
0.0141
0.0120
0.0096
0.0068
0.0037
0.0001
-0.0038
-0.0081
-0.0128
-0.0179
-0.0234
-0.0293
-0.0355
-0.0420
-0.0488
-0.0558
-0.0629
-0.0700
-0.0771
-0.0840
-0.0906
-0.0967
-0.1021
-0.1067
-0.1102
-0.1123
-0.1129
-0.1118
-0.1085
-0.1030
-0.0950
-0.0843
-0.0706
-0.0539
-0.0341
-0.0110
0.0152
0.0444
0.0766
0.1113
0.1482
0.1869
0.2267
0.2671
0.3072
0.3464
0.3836
0.4180
0.4488
0.4750
0.4959
0.5106
0.5186
0.5194
0.5128
0.4985
0.4768
0.4479
0.4125
0.3714
0.3256
0.2763
0.2248
0.1727
0.1213
0.0722
0.0268
-0.0137
-0.0481
-0.0756
-0.0957
-0.1081
-0.1129
-0.1105
-0.1016
-0.0873
-0.0688
-0.0475
-0.0248
-0.0023
0.0187
0.0370
0.0514
0.0613
0.0662
0.0661
0.0612
0.0522
0.0398
0.0252
0.0094
-0.0062
-0.0205
-0.0324
-0.0412
-0.0327
-0.0207
-0.0063
0.0094
0.0253
0.0401
0.0525
0.0615
0.0662
0.0660
0.0607
0.0502
0.0352
0.0164
-0.0051
-0.0281
-0.0510
-0.0722
-0.0903
-0.1039
-0.1116
-0.1124
-0.1058
-0.0912
-0.0687
-0.0386
-0.0015
0.0414
0.0892
0.1402
0.1931
0.2463
0.2981
0.3470
0.3918
0.4311
0.4640
0.4897
0.5077
0.5177
0.5198
0.5141
0.5011
0.4814
0.4558
0.4250
0.3901
0.3520
0.3116
0.2700
0.2280
0.1865
0.1462
0.1077
0.0716
0.0384
0.0083
-0.0184
-0.0417
-0.0614
-0.0777
-0.0906
-0.1004
-0.1072
-0.1113
-0.1129
-0.1124
-0.1100
-0.1060
-0.1007
-0.0943
-0.0871
-0.0793
-0.0711
-0.0627
-0.0542
-0.0458
-0.0376
-0.0296
-0.0220
-0.0148
-0.0079
-0.0016
0.0043
0.0098
0.0147
0.0192
0.0233
0.0270
0.0302
0.0331
0.0356
0.0378
0.0397
0.0412
0.0425
0.0436
0.0444
0.0450
0.0453
0.0454
0.0453
0.0450
0.0444
0.0436
0.0425
0.0412
0.0397
0.0378
0.0356
0.0331
0.0302
0.0270
0.0233
0.0192
0.0147
0.0098
0.0043
-0.0016
-0.0079
-0.0148
-0.0220
-0.0296
-0.0376
-0.0458
-0.0542
-0.0627
-0.0711
-0.0793
-0.0871
-0.0943
-0.1007
-0.1060
-0.1100
-0.1124
-0.1129
-0.1113
-0.1072
-0.1004
-0.0906
-0.0777
-0.0614
-0.0417
-0.0184
0.0083
0.0384
0.0716
0.1077
0.1462
0.1865
0.2280
0.2700
0.3116
0.3520
0.3901
0.4250
0.4558
0.4814
0.5011
0.5141
0.5198
0.5177
0.5077
0.4897
0.4640
0.4311
0.3918
0.3470
0.2981
0.2463
0.1931
0.1402
0.0892
0.0414
-0.0015
-0.0386
-0.0687
-0.0912
-0.1058
-0.1124
-0.1116
-0.1039
-0.0903
-0.0722
-0.0510
-0.0281
-0.0051
0.0164
0.0352
0.0502
0.0607
0.0660
0.0662
0.0615
0.0525
0.0401
0.0253
0.0094
-0.0063
-0.0207
-0.0327
-0.0213
-0.0068
0.0091
0.0252
0.0401
0.0526
0.0617
0.0663
0.0659
0.0602
0.0494
0.0339
0.0145
-0.0075
-0.0308
-0.0539
-0.0751
-0.0928
-0.1057
-0.1123
-0.1117
-0.1032
-0.0866
-0.0618
-0.0293
0.0101
0.0554
0.1052
0.1580
0.2122
0.2661
0.3180
0.3664
0.4098
0.4472
0.4774
0.4998
0.5140
0.5198
0.5174
0.5070
0.4892
0.4648
0.4347
0.3998
0.3612
0.3199
0.2770
0.2334
0.1902
0.1482
0.1081
0.0705
0.0360
0.0048
-0.0227
-0.0465
-0.0663
-0.0824
-0.0949
-0.1039
-0.1097
-0.1125
-0.1128
-0.1107
-0.1067
-0.1010
-0.0941
-0.0860
-0.0773
-0.0680
-0.0584
-0.0488
-0.0392
-0.0298
-0.0208
-0.0121
-0.0040
0.0037
0.0107
0.0172
0.0232
0.0285
0.0334
0.0377
0.0415
0.0448
0.0478
0.0503
0.0525
0.0544
0.0560
0.0573
0.0584
0.0593
0.0600
0.0606
0.0610
0.0613
0.0615
0.0615
0.0615
0.0613
0.0610
0.0606
0.0600
0.0593
0.0584
0.0573
0.0560
0.0544
0.0525
0.0503
0.0478
0.0448
0.0415
0.0377
0.0334
0.0285
0.0232
0.0172
0.0107
0.0037
-0.0040
-0.0121
-0.0208
-0.0298
-0.0392
-0.0488
-0.0584
-0.0680
-0.0773
-0.0860
-0.0941
-0.1010
-0.1067
-0.1107
-0.1128
-0.1125
-0.1097
-0.1039
-0.0949
-0.0824
-0.0663
-0.0465
-0.0227
0.0048
0.0360
0.0705
0.1081
0.1482
0.1902
0.2334
0.2770
0.3199
0.3612
0.3998
0.4347
0.4648
0.4892
0.5070
0.5174
0.5198
0.5140
0.4998
0.4774
0.4472
0.4098
0.3664
0.3180
0.2661
0.2122
0.1580
0.1052
0.0554
0.0101
-0.0293
-0.0618
-0.0866
-0.1032
-0.1117
-0.1123
-0.1057
-0.0928
-0.0751
-0.0539
-0.0308
-0.0075
0.0145
0.0339
0.0494
0.0602
0.0659
0.0663
0.0617
0.0526
0.0401
0.0252
0.0091
-0.0068
-0.0213
-0.0076
0.0084
0.0247
0.0398
0.0525
0.0617
0.0663
0.0658
0.0599
0.0488
0.0329
0.0131
-0.0093
-0.0330
-0.0562
-0.0774
-0.0948
-0.1070
-0.1127
-0.1108
-0.1007
-0.0822
-0.0553
-0.0205
0.0211
0.0685
0.1202
0.1746
0.2298
0.2842
0.3361
0.3837
0.4257
0.4609
0.4884
0.5075
0.5179
0.5196
0.5127
0.4977
0.4754
0.4467
0.4124
0.3738
0.3319
0.2880
0.2431
0.1982
0.1544
0.1125
0.0732
0.0370
0.0045
-0.0242
-0.0487
-0.0690
-0.0853
-0.0975
-0.1060
-0.1111
-0.1129
-0.1120
-0.1086
-0.1032
-0.0961
-0.0876
-0.0781
-0.0680
-0.0574
-0.0467
-0.0360
-0.0256
-0.0155
-0.0059
0.0032
0.0115
0.0192
0.0263
0.0326
0.0382
0.0431
0.0475
0.0512
0.0544
0.0571
0.0593
0.0611
0.0626
0.0638
0.0647
0.0653
0.0658
0.0662
0.0664
0.0666
0.0667
0.0667
0.0668
0.0668
0.0668
0.0668
0.0668
0.0668
0.0668
0.0667
0.0667
0.0666
0.0664
0.0662
0.0658
0.0653
0.0647
0.0638
0.0626
0.0611
0.0593
0.0571
0.0544
0.0512
0.0475
0.0431
0.0382
0.0326
0.0263
0.0192
0.0115
0.0032
-0.0059
-0.0155
-0.0256
-0.0360
-0.0467
-0.0574
-0.0680
-0.0781
-0.0876
-0.0961
-0.1032
-0.1086
-0.1120
-0.1129
-0.1111
-0.1060
-0.0975
-0.0853
-0.0690
-0.0487
-0.0242
0.0045
0.0370
0.0732
0.1125
0.1544
0.1982
0.2431
0.2880
0.3319
0.3738
0.4124
0.4467
0.4754
0.4977
0.5127
0.5196
0.5179
0.5075
0.4884
0.4609
0.4257
0.3837
0.3361
0.2842
0.2298
0.1746
0.1202
0.0685
0.0211
-0.0205
-0.0553
-0.0822
-0.1007
-0.1108
-0.1127
-0.1070
-0.0948
-0.0774
-0.0562
-0.0330
-0.0093
0.0131
0.0329
0.0488
0.0599
0.0658
0.0663
0.0617
0.0525
0.0398
0.0247
0.0084
-0.0076
0.0075
0.0239
0.0392
0.0522
0.0615
0.0663
0.0658
0.0598
0.0485
0.0323
0.0121
-0.0107
-0.0346
-0.0581
-0.0792
-0.0964
-0.1081
-0.1129
-0.1098
-0.0983
-0.0780
-0.0492
-0.0124
0.0313
0.0806
0.1340
0.1897
0.2459
0.3007
0.3523
0.3990
0.4395
0.4726
0.4973
0.5131
0.5198
0.5173
0.5061
0.4869
0.4603
0.4274
0.3894
0.3475
0.3029
0.2568
0.2104
0.1648
0.1209
0.0796
0.0416
0.0073
-0.0227
-0.0484
-0.0696
-0.0864
-0.0988
-0.1072
-0.1118
-0.1129
-0.1111
-0.1066
-0.1000
-0.0916
-0.0818
-0.0711
-0.0598
-0.0481
-0.0364
-0.0248
-0.0137
-0.0031
0.0068
0.0160
0.0244
0.0319
0.0386
0.0444
0.0494
0.0537
0.0572
0.0601
0.0623
0.0640
0.0653
0.0661
0.0666
0.0668
0.0667
0.0664
0.0660
0.0655
0.0650
0.0644
0.0638
0.0632
0.0627
0.0623
0.0619
0.0617
0.0615
0.0615
0.0615
0.0617
0.0619
0.0623
0.0627
0.0632
0.0638
0.0644
0.0650
0.0655
0.0660
0.0664
0.0667
0.0668
0.0666
0.0661
0.0653
0.0640
0.0623
0.0601
0.0572
0.0537
0.0494
0.0444
0.0386
0.0319
0.0244
0.0160
0.0068
-0.0031
-0.0137
-0.0248
-0.0364
-0.0481
-0.0598
-0.0711
-0.0818
-0.0916
-0.1000
-0.1066
-0.1111
-0.1129
-0.1118
-0.1072
-0.0988
-0.0864
-0.0696
-0.0484
-0.0227
0.0073
0.0416
0.0796
0.1209
0.1648
0.2104
0.2568
0.3029
0.3475
0.3894
0.4274
0.4603
0.4869
0.5061
0.5173
0.5198
0.5131
0.4973
0.4726
0.4395
0.3990
0.3523
0.3007
0.2459
0.1897
0.1340
0.0806
0.0313
-0.0124
-0.0492
-0.0780
-0.0983
-0.1098
-0.1129
-0.1081
-0.0964
-0.0792
-0.0581
-0.0346
-0.0107
0.0121
0.0323
0.0485
0.0598
0.0658
0.0663
0.0615
0.0522
0.0392
0.0239
0.0075
0.0227
0.0383
0.0516
0.0612
0.0662
0.0659
0.0599
0.0485
0.0321
0.0116
-0.0115
-0.0357
-0.0594
-0.0806
-0.0976
-0.1089
-0.1130
-0.1089
-0.0960
-0.0742
-0.0436
-0.0050
0.0405
0.0916
0.1465
0.2034
0.2604
0.3154
0.3667
0.4125
0.4515
0.4823
0.5043
0.5168
0.5198
0.5135
0.4982
0.4748
0.4442
0.4076
0.3663
0.3214
0.2745
0.2267
0.1794
0.1335
0.0900
0.0498
0.0135
-0.0184
-0.0457
-0.0682
-0.0859
-0.0989
-0.1075
-0.1120
-0.1128
-0.1104
-0.1051
-0.0975
-0.0880
-0.0771
-0.0653
-0.0529
-0.0402
-0.0277
-0.0155
-0.0038
0.0071
0.0172
0.0264
0.0346
0.0417
0.0479
0.0530
0.0573
0.0606
0.0632
0.0650
0.0661
0.0667
0.0667
0.0664
0.0656
0.0646
0.0634
0.0620
0.0606
0.0590
0.0575
0.0560
0.0545
0.0531
0.0519
0.0507
0.0497
0.0489
0.0483
0.0478
0.0475
0.0474
0.0475
0.0478
0.0483
0.0489
0.0497
0.0507
0.0519
0.0531
0.0545
0.0560
0.0575
0.0590
0.0606
0.0620
0.0634
0.0646
0.0656
0.0664
0.0667
0.0667
0.0661
0.0650
0.0632
0.0606
0.0573
0.0530
0.0479
0.0417
0.0346
0.0264
0.0172
0.0071
-0.0038
-0.0155
-0.0277
-0.0402
-0.0529
-0.0653
-0.0771
-0.0880
-0.0975
-0.1051
-0.1104
-0.1128
-0.1120
-0.1075
-0.0989
-0.0859
-0.0682
-0.0457
-0.0184
0.0135
0.0498
0.0900
0.1335
0.1794
0.2267
0.2745
0.3214
0.3663
0.4076
0.4442
0.4748
0.4982
0.5135
0.5198
0.5168
0.5043
0.4823
0.4515
0.4125
0.3667
0.3154
0.2604
0.2034
0.1465
0.0916
0.0405
-0.0050
-0.0436
-0.0742
-0.0960
-0.1089
-0.1130
-0.1089
-0.0976
-0.0806
-0.0594
-0.0357
-0.0115
0.0116
0.0321
0.0485
0.0599
0.0659
0.0662
0.0612
0.0516
0.0383
0.0227
0.0371
0.0507
0.0607
0.0661
0.0660
0.0602
0.0488
0.0323
0.0116
-0.0117
-0.0363
-0.0601
-0.0815
-0.0984
-0.1094
-0.1129
-0.1080
-0.0941
-0.0709
-0.0388
0.0015
0.0487
0.1014
0.1577
0.2157
0.2733
0.3285
0.3794
0.4243
0.4616
0.4903
0.5096
0.5190
0.5185
0.5084
0.4892
0.4620
0.4277
0.3877
0.3433
0.2960
0.2472
0.1982
0.1503
0.1045
0.0619
0.0232
-0.0110
-0.0404
-0.0647
-0.0838
-0.0979
-0.1072
-0.1120
-0.1128
-0.1100
-0.1042
-0.0958
-0.0855
-0.0737
-0.0609
-0.0476
-0.0341
-0.0208
-0.0079
0.0042
0.0154
0.0255
0.0346
0.0424
0.0491
0.0546
0.0590
0.0623
0.0647
0.0661
0.0667
0.0666
0.0659
0.0647
0.0631
0.0611
0.0588
0.0564
0.0539
0.0512
0.0486
0.0461
0.0436
0.0412
0.0389
0.0368
0.0349
0.0332
0.0317
0.0304
0.0294
0.0285
0.0279
0.0276
0.0275
0.0276
0.0279
0.0285
0.0294
0.0304
0.0317
0.0332
0.0349
0.0368
0.0389
0.0412
0.0436
0.0461
0.0486
0.0512
0.0539
0.0564
0.0588
0.0611
0.0631
0.0647
0.0659
0.0666
0.0667
0.0661
0.0647
0.0623
0.0590
0.0546
0.0491
0.0424
0.0346
0.0255
0.0154
0.0042
-0.0079
-0.0208
-0.0341
-0.0476
-0.0609
-0.0737
-0.0855
-0.0958
-0.1042
-0.1100
-0.1128
-0.1120
-0.1072
-0.0979
-0.0838
-0.0647
-0.0404
-0.0110
0.0232
0.0619
0.1045
0.1503
0.1982
0.2472
0.2960
0.3433
0.3877
0.4277
0.4620
0.4892
0.5084
0.5185
0.5190
0.5096
0.4903
0.4616
0.4243
0.3794
0.3285
0.2733
0.2157
0.1577
0.1014
0.0487
0.0015
-0.0388
-0.0709
-0.0941
-0.1080
-0.1129
-0.1094
-0.0984
-0.0815
-0.0601
-0.0363
-0.0117
0.0116
0.0323
0.0488
0.0602
0.0660
0.0661
0.0607
0.0507
0.0371
0.0496
0.0601
0.0659
0.0662
0.0607
0.0494
0.0329
0.0121
-0.0115
-0.0363
-0.0604
-0.0819
-0.0989
-0.1097
-0.1129
-0.1073
-0.0925
-0.0681
-0.0347
0.0070
0.0557
0.1098
0.1674
0.2264
0.2846
0.3400
0.3905
0.4344
0.4702
0.4968
0.5135
0.5199
0.5161
0.5024
0.4796
0.4488
0.4111
0.3681
0.3210
0.2716
0.2213
0.1714
0.1233
0.0781
0.0367
-0.0003
-0.0322
-0.0587
-0.0798
-0.0955
-0.1060
-0.1117
-0.1129
-0.1102
-0.1041
-0.0953
-0.0843
-0.0717
-0.0581
-0.0439
-0.0296
-0.0156
-0.0023
0.0102
0.0217
0.0319
0.0408
0.0483
0.0545
0.0593
0.0628
0.0652
0.0665
0.0667
0.0661
0.0648
0.0628
0.0603
0.0574
0.0542
0.0507
0.0471
0.0435
0.0398
0.0362
0.0326
0.0293
0.0260
0.0230
0.0202
0.0176
0.0152
0.0131
0.0112
0.0096
0.0082
0.0071
0.0062
0.0056
0.0052
0.0051
0.0052
0.0056
0.0062
0.0071
0.0082
0.0096
0.0112
0.0131
0.0152
0.0176
0.0202
0.0230
0.0260
0.0293
0.0326
0.0362
0.0398
0.0435
0.0471
0.0507
0.0542
0.0574
0.0603
0.0628
0.0648
0.0661
0.0667
0.0665
0.0652
0.0628
0.0593
0.0545
0.0483
0.0408
0.0319
0.0217
0.0102
-0.0023
-0.0156
-0.0296
-0.0439
-0.0581
-0.0717
-0.0843
-0.0953
-0.1041
-0.1102
-0.1129
-0.1117
-0.1060
-0.0955
-0.0798
-0.0587
-0.0322
-0.0003
0.0367
0.0781
0.1233
0.1714
0.2213
0.2716
0.3210
0.3681
0.4111
0.4488
0.4796
0.5024
0.5161
0.5199
0.5135
0.4968
0.4702
0.4344
0.3905
0.3400
0.2846
0.2264
0.1674
0.1098
0.0557
0.0070
-0.0347
-0.0681
-0.0925
-0.1073
-0.1129
-0.1097
-0.0989
-0.0819
-0.0604
-0.0363
-0.0115
0.0121
0.0329
0.0494
0.0607
0.0662
0.0659
0.0601
0.0496
0.0592
0.0656
0.0664
0.0613
0.0502
0.0339
0.0131
-0.0107
-0.0357
-0.0601
-0.0819
-0.0991
-0.1099
-0.1129
-0.1069
-0.0913
-0.0660
-0.0314
0.0116
0.0616
0.1170
0.1757
0.2356
0.2943
0.3498
0.4000
0.4430
0.4774
0.5020
0.5163
0.5199
0.5129
0.4959
0.4697
0.4356
0.3948
0.3490
0.2997
0.2485
0.1970
0.1466
0.0986
0.0542
0.0142
-0.0207
-0.0501
-0.0738
-0.0916
-0.1039
-0.1109
-0.1130
-0.1108
-0.1048
-0.0958
-0.0844
-0.0713
-0.0569
-0.0420
-0.0270
-0.0123
0.0016
0.0146
0.0263
0.0365
0.0453
0.0525
0.0582
0.0623
0.0651
0.0665
0.0667
0.0659
0.0641
0.0615
0.0583
0.0546
0.0505
0.0461
0.0415
0.0368
0.0322
0.0276
0.0231
0.0188
0.0147
0.0108
0.0072
0.0038
0.0008
-0.0021
-0.0046
-0.0069
-0.0089
-0.0107
-0.0122
-0.0134
-0.0144
-0.0152
-0.0158
-0.0161
-0.0162
-0.0161
-0.0158
-0.0152
-0.0144
-0.0134
-0.0122
-0.0107
-0.0089
-0.0069
-0.0046
-0.0021
0.0008
0.0038
0.0072
0.0108
0.0147
0.0188
0.0231
0.0276
0.0322
0.0368
0.0415
0.0461
0.0505
0.0546
0.0583
0.0615
0.0641
0.0659
0.0667
0.0665
0.0651
0.0623
0.0582
0.0525
0.0453
0.0365
0.0263
0.0146
0.0016
-0.0123
-0.0270
-0.0420
-0.0569
-0.0713
-0.0844
-0.0958
-0.1048
-0.1108
-0.1130
-0.1109
-0.1039
-0.0916
-0.0738
-0.0501
-0.0207
0.0142
0.0542
0.0986
0.1466
0.1970
0.2485
0.2997
0.3490
0.3948
0.4356
0.4697
0.4959
0.5129
0.5199
0.5163
0.5020
0.4774
0.4430
0.4000
0.3498
0.2943
0.2356
0.1757
0.1170
0.0616
0.0116
-0.0314
-0.0660
-0.0913
-0.1069
-0.1129
-0.1099
-0.0991
-0.0819
-0.0601
-0.0357
-0.0107
0.0131
0.0339
0.0502
0.0613
0.0664
0.0656
0.0592
0.0651
0.0666
0.0620
0.0514
0.0352
0.0145
-0.0093
-0.0346
-0.0594
-0.0815
-0.0989
-0.1099
-0.1128
-0.1066
-0.0906
-0.0646
-0.0291
0.0150
0.0662
0.1227
0.1825
0.2432
0.3025
0.3582
0.4080
0.4502
0.4833
0.5061
0.5181
0.5190
0.5091
0.4891
0.4598
0.4226
0.3791
0.3308
0.2794
0.2267
0.1744
0.1237
0.0762
0.0328
-0.0056
-0.0383
-0.0651
-0.0857
-0.1004
-0.1093
-0.1128
-0.1116
-0.1063
-0.0975
-0.0859
-0.0723
-0.0574
-0.0418
-0.0261
-0.0107
0.0038
0.0172
0.0292
0.0397
0.0484
0.0554
0.0606
0.0642
0.0662
0.0667
0.0660
0.0641
0.0612
0.0575
0.0531
0.0483
0.0430
0.0376
0.0321
0.0265
0.0210
0.0157
0.0106
0.0057
0.0011
-0.0032
-0.0071
-0.0108
-0.0141
-0.0171
-0.0198
-0.0222
-0.0243
-0.0262
-0.0278
-0.0292
-0.0303
-0.0313
-0.0321
-0.0327
-0.0331
-0.0333
-0.0334
-0.0333
-0.0331
-0.0327
-0.0321
-0.0313
-0.0303
-0.0292
-0.0278
-0.0262
-0.0243
-0.0222
-0.0198
-0.0171
-0.0141
-0.0108
-0.0071
-0.0032
0.0011
0.0057
0.0106
0.0157
0.0210
0.0265
0.0321
0.0376
0.0430
0.0483
0.0531
0.0575
0.0612
0.0641
0.0660
0.0667
0.0662
0.0642
0.0606
0.0554
0.0484
0.0397
0.0292
0.0172
0.0038
-0.0107
-0.0261
-0.0418
-0.0574
-0.0723
-0.0859
-0.0975
-0.1063
-0.1116
-0.1128
-0.1093
-0.1004
-0.0857
-0.0651
-0.0383
-0.0056
0.0328
0.0762
0.1237
0.1744
0.2267
0.2794
0.3308
0.3791
0.4226
0.4598
0.4891
0.5091
0.5190
0.5181
0.5061
0.4833
0.4502
0.4080
0.3582
0.3025
0.2432
0.1825
0.1227
0.0662
0.0150
-0.0291
-0.0646
-0.0906
-0.1066
-0.1128
-0.1099
-0.0989
-0.0815
-0.0594
-0.0346
-0.0093
0.0145
0.0352
0.0514
0.0620
0.0666
0.0651
0.0667
0.0628
0.0527
0.0370
0.0164
-0.0075
-0.0330
-0.0581
-0.0806
-0.0984
-0.1097
-0.1129
-0.1066
-0.0903
-0.0638
-0.0276
0.0173
0.0695
0.1271
0.1878
0.2493
0.3092
0.3650
0.4146
0.4562
0.4881
0.5093
0.5192
0.5177
0.5052
0.4822
0.4501
0.4102
0.3641
0.3136
0.2605
0.2066
0.1536
0.1030
0.0560
0.0139
-0.0227
-0.0532
-0.0773
-0.0950
-0.1065
-0.1122
-0.1125
-0.1082
-0.1000
-0.0886
-0.0749
-0.0596
-0.0434
-0.0270
-0.0109
0.0043
0.0183
0.0308
0.0415
0.0503
0.0572
0.0622
0.0653
0.0667
0.0664
0.0648
0.0619
0.0580
0.0533
0.0479
0.0420
0.0358
0.0295
0.0231
0.0168
0.0107
0.0048
-0.0007
-0.0059
-0.0108
-0.0152
-0.0193
-0.0229
-0.0262
-0.0291
-0.0316
-0.0339
-0.0358
-0.0375
-0.0389
-0.0401
-0.0411
-0.0419
-0.0426
-0.0431
-0.0435
-0.0438
-0.0440
-0.0441
-0.0442
-0.0441
-0.0440
-0.0438
-0.0435
-0.0431
-0.0426
-0.0419
-0.0411
-0.0401
-0.0389
-0.0375
-0.0358
-0.0339
-0.0316
-0.0291
-0.0262
-0.0229
-0.0193
-0.0152
-0.0108
-0.0059
-0.0007
0.0048
0.0107
0.0168
0.0231
0.0295
0.0358
0.0420
0.0479
0.0533
0.0580
0.0619
0.0648
0.0664
0.0667
0.0653
0.0622
0.0572
0.0503
0.0415
0.0308
0.0183
0.0043
-0.0109
-0.0270
-0.0434
-0.0596
-0.0749
-0.0886
-0.1000
-0.1082
-0.1125
-0.1122
-0.1065
-0.0950
-0.0773
-0.0532
-0.0227
0.0139
0.0560
0.1030
0.1536
0.2066
0.2605
0.3136
0.3641
0.4102
0.4501
0.4822
0.5052
0.5177
0.5192
0.5093
0.4881
0.4562
0.4146
0.3650
0.3092
0.2493
0.1878
0.1271
0.0695
0.0173
-0.0276
-0.0638
-0.0903
-0.1066
-0.1129
-0.1097
-0.0984
-0.0806
-0.0581
-0.0330
-0.0075
0.0164
0.0370
0.0527
0.0628
0.0667
0.0637
0.0543
0.0390
0.0187
-0.0051
-0.0308
-0.0562
-0.0792
-0.0976
-0.1094
-0.1129
-0.1069
-0.0906
-0.0638
-0.0272
0.0185
0.0715
0.1300
0.1916
0.2539
0.3143
0.3704
0.4199
0.4609
0.4919
0.5117
0.5198
0.5161
0.5011
0.4757
0.4409
0.3985
0.3501
0.2977
0.2431
0.1882
0.1347
0.0842
0.0381
-0.0028
-0.0375
-0.0657
-0.0872
-0.1020
-0.1104
-0.1130
-0.1103
-0.1032
-0.0924
-0.0789
-0.0634
-0.0467
-0.0296
-0.0128
0.0032
0.0179
0.0309
0.0421
0.0512
0.0582
0.0630
0.0658
0.0668
0.0659
0.0635
0.0598
0.0550
0.0494
0.0430
0.0363
0.0293
0.0221
0.0151
0.0082
0.0016
-0.0046
-0.0104
-0.0158
-0.0206
-0.0250
-0.0289
-0.0323
-0.0353
-0.0378
-0.0399
-0.0417
-0.0432
-0.0443
-0.0453
-0.0460
-0.0465
-0.0469
-0.0471
-0.0473
-0.0474
-0.0475
-0.0475
-0.0475
-0.0475
-0.0475
-0.0475
-0.0475
-0.0475
-0.0475
-0.0475
-0.0475
-0.0474
-0.0473
-0.0471
-0.0469
-0.0465
-0.0460
-0.0453
-0.0443
-0.0432
-0.0417
-0.0399
-0.0378
-0.0353
-0.0323
-0.0289
-0.0250
-0.0206
-0.0158
-0.0104
-0.0046
0.0016
0.0082
0.0151
0.0221
0.0293
0.0363
0.0430
0.0494
0.0550
0.0598
0.0635
0.0659
0.0668
0.0658
0.0630
0.0582
0.0512
0.0421
0.0309
0.0179
0.0032
-0.0128
-0.0296
-0.0467
-0.0634
-0.0789
-0.0924
-0.1032
-0.1103
-0.1130
-0.1104
-0.1020
-0.0872
-0.0657
-0.0375
-0.0028
0.0381
0.0842
0.1347
0.1882
0.2431
0.2977
0.3501
0.3985
0.4409
0.4757
0.5011
0.5161
0.5198
0.5117
0.4919
0.4609
0.4199
0.3704
0.3143
0.2539
0.1916
0.1300
0.0715
0.0185
-0.0272
-0.0638
-0.0906
-0.1069
-0.1129
-0.1094
-0.0976
-0.0792
-0.0562
-0.0308
-0.0051
0.0187
0.0390
0.0543
0.0637
0.0560
0.0413
0.0215
-0.0023
-0.0281
-0.0539
-0.0774
-0.0964
-0.1089
-0.1129
-0.1073
-0.0913
-0.0646
-0.0276
0.0185
0.0722
0.1314
0.1939
0.2570
0.3180
0.3744
0.4240
0.4646
0.4948
0.5134
0.5200
0.5144
0.4973
0.4695
0.4324
0.3877
0.3373
0.2831
0.2272
0.1714
0.1177
0.0675
0.0222
-0.0173
-0.0501
-0.0760
-0.0949
-0.1069
-0.1124
-0.1121
-0.1067
-0.0970
-0.0840
-0.0686
-0.0517
-0.0341
-0.0165
0.0003
0.0158
0.0297
0.0415
0.0511
0.0584
0.0634
0.0661
0.0667
0.0654
0.0625
0.0581
0.0525
0.0461
0.0389
0.0314
0.0236
0.0158
0.0082
0.0009
-0.0061
-0.0125
-0.0184
-0.0237
-0.0285
-0.0326
-0.0361
-0.0391
-0.0415
-0.0435
-0.0450
-0.0461
-0.0468
-0.0473
-0.0475
-0.0475
-0.0473
-0.0470
-0.0466
-0.0462
-0.0457
-0.0452
-0.0448
-0.0443
-0.0440
-0.0437
-0.0435
-0.0433
-0.0433
-0.0433
-0.0435
-0.0437
-0.0440
-0.0443
-0.0448
-0.0452
-0.0457
-0.0462
-0.0466
-0.0470
-0.0473
-0.0475
-0.0475
-0.0473
-0.0468
-0.0461
-0.0450
-0.0435
-0.0415
-0.0391
-0.0361
-0.0326
-0.0285
-0.0237
-0.0184
-0.0125
-0.0061
0.0009
0.0082
0.0158
0.0236
0.0314
0.0389
0.0461
0.0525
0.0581
0.0625
0.0654
0.0667
0.0661
0.0634
0.0584
0.0511
0.0415
0.0297
0.0158
0.0003
-0.0165
-0.0341
-0.0517
-0.0686
-0.0840
-0.0970
-0.1067
-0.1121
-0.1124
-0.1069
-0.0949
-0.0760
-0.0501
-0.0173
0.0222
0.0675
0.1177
0.1714
0.2272
0.2831
0.3373
0.3877
0.4324
0.4695
0.4973
0.5144
0.5200
0.5134
0.4948
0.4646
0.4240
0.3744
0.3180
0.2570
0.1939
0.1314
0.0722
0.0185
-0.0276
-0.0646
-0.0913
-0.1073
-0.1129
-0.1089
-0.0964
-0.0774
-0.0539
-0.0281
-0.0023
0.0215
0.0413
0.0560
0.0439
0.0246
0.0011
-0.0248
-0.0510
-0.0751
-0.0948
-0.1081
-0.1130
-0.1080
-0.0925
-0.0660
-0.0291
0.0173
0.0715
0.1314
0.1947
0.2585
0.3202
0.3771
0.4269
0.4674
0.4970
0.5147
0.5200
0.5128
0.4937
0.4639
0.4247
0.3780
0.3257
0.2700
0.2129
0.1565
0.1026
0.0527
0.0083
-0.0297
-0.0608
-0.0844
-0.1008
-0.1101
-0.1130
-0.1100
-0.1020
-0.0901
-0.0752
-0.0583
-0.0402
-0.0220
-0.0043
0.0122
0.0270
0.0397
0.0500
0.0579
0.0632
0.0661
0.0667
0.0652
0.0618
0.0569
0.0507
0.0436
0.0357
0.0275
0.0191
0.0107
0.0026
-0.0051
-0.0123
-0.0188
-0.0247
-0.0299
-0.0344
-0.0381
-0.0411
-0.0435
-0.0453
-0.0465
-0.0472
-0.0475
-0.0474
-0.0470
-0.0463
-0.0454
-0.0444
-0.0433
-0.0421
-0.0409
-0.0397
-0.0385
-0.0374
-0.0364
-0.0355
-0.0347
-0.0340
-0.0335
-0.0331
-0.0329
-0.0328
-0.0329
-0.0331
-0.0335
-0.0340
-0.0347
-0.0355
-0.0364
-0.0374
-0.0385
-0.0397
-0.0409
-0.0421
-0.0433
-0.0444
-0.0454
-0.0463
-0.0470
-0.0474
-0.0475
-0.0472
-0.0465
-0.0453
-0.0435
-0.0411
-0.0381
-0.0344
-0.0299
-0.0247
-0.0188
-0.0123
-0.0051
0.0026
0.0107
0.0191
0.0275
0.0357
0.0436
0.0507
0.0569
0.0618
0.0652
0.0667
0.0661
0.0632
0.0579
0.0500
0.0397
0.0270
0.0122
-0.0043
-0.0220
-0.0402
-0.0583
-0.0752
-0.0901
-0.1020
-0.1100
-0.1130
-0.1101
-0.1008
-0.0844
-0.0608
-0.0297
0.0083
0.0527
0.1026
0.1565
0.2129
0.2700
0.3257
0.3780
0.4247
0.4639
0.4937
0.5128
0.5200
0.5147
0.4970
0.4674
0.4269
0.3771
0.3202
0.2585
0.1947
0.1314
0.0715
0.0173
-0.0291
-0.0660
-0.0925
-0.1080
-0.1130
-0.1081
-0.0948
-0.0751
-0.0510
-0.0248
0.0011
0.0246
0.0439
0.0280
0.0049
-0.0210
-0.0475
-0.0722
-0.0928
-0.1070
-0.1129
-0.1089
-0.0941
-0.0681
-0.0314
0.0150
0.0695
0.1300
0.1939
0.2585
0.3209
0.3784
0.4286
0.4691
0.4985
0.5156
0.5198
0.5113
0.4907
0.4590
0.4180
0.3695
0.3156
0.2584
0.2003
0.1433
0.0893
0.0398
-0.0037
-0.0404
-0.0696
-0.0912
-0.1052
-0.1120
-0.1123
-0.1069
-0.0967
-0.0828
-0.0663
-0.0481
-0.0293
-0.0107
0.0068
0.0227
0.0365
0.0479
0.0566
0.0626
0.0659
0.0667
0.0652
0.0617
0.0564
0.0497
0.0420
0.0336
0.0247
0.0157
0.0068
-0.0017
-0.0097
-0.0171
-0.0237
-0.0295
-0.0345
-0.0386
-0.0419
-0.0443
-0.0461
-0.0471
-0.0475
-0.0473
-0.0467
-0.0457
-0.0443
-0.0427
-0.0409
-0.0390
-0.0370
-0.0350
-0.0329
-0.0310
-0.0291
-0.0273
-0.0256
-0.0240
-0.0227
-0.0214
-0.0204
-0.0195
-0.0189
-0.0184
-0.0181
-0.0180
-0.0181
-0.0184
-0.0189
-0.0195
-0.0204
-0.0214
-0.0227
-0.0240
-0.0256
-0.0273
-0.0291
-0.0310