# vtk DataFile Version 1.0
2D Sin graph datase
ASCII

DATASET STRUCTURED_POINTS
DIMENSIONS 201 201 1
ORIGIN 0 0 0
SPACING 0.05 0.05 0.05

POINT_DATA 40401

SCALARS scalars float
LOOKUP_TABLE default
-0.0370
-0.0357
-0.0315
-0.0247
-0.0157
-0.0053
0.0059
0.0169
0.0270
0.0354
0.0415
0.0448
0.0450
0.0420
0.0360
0.0273
0.0165
0.0042
-0.0088
-0.0216
-0.0335
-0.0438
-0.0516
-0.0566
-0.0583
-0.0567
-0.0516
-0.0434
-0.0325
-0.0193
-0.0046
0.0110
0.0266
0.0415
0.0549
0.0662
0.0747
0.0801
0.0820
0.0803
0.0749
0.0661
0.0541
0.0393
0.0222
0.0035
-0.0163
-0.0365
-0.0563
-0.0752
-0.0925
-0.1077
-0.1202
-0.1298
-0.1360
-0.1386
-0.1376
-0.1329
-0.1244
-0.1125
-0.0971
-0.0786
-0.0574
-0.0336
-0.0077
0.0200
0.0491
0.0792
0.1100
0.1411
0.1722
0.2030
0.2333
0.2628
0.2913
0.3187
0.3448
0.3696
0.3929
0.4147
0.4350
0.4538
0.4712
0.4870
0.5014
0.5145
0.5262
0.5368
0.5462
0.5545
0.5617
0.5681
0.5736
0.5782
0.5821
0.5854
0.5879
0.5899
0.5913
0.5921
0.5924
0.5921
0.5913
0.5899
0.5879
0.5854
0.5821
0.5782
0.5736
0.5681
0.5617
0.5545
0.5462
0.5368
0.5262
0.5145
0.5014
0.4870
0.4712
0.4538
0.4350
0.4147
0.3929
0.3696
0.3448
0.3187
0.2913
0.2628
0.2333
0.2030
0.1722
0.1411
0.1100
0.0792
0.0491
0.0200
-0.0077
-0.0336
-0.0574
-0.0786
-0.0971
-0.1125
-0.1244
-0.1329
-0.1376
-0.1386
-0.1360
-0.1298
-0.1202
-0.1077
-0.0925
-0.0752
-0.0563
-0.0365
-0.0163
0.0035
0.0222
0.0393
0.0541
0.0661
0.0749
0.0803
0.0820
0.0801
0.0747
0.0662
0.0549
0.0415
0.0266
0.0110
-0.0046
-0.0193
-0.0325
-0.0434
-0.0516
-0.0567
-0.0583
-0.0566
-0.0516
-0.0438
-0.0335
-0.0216
-0.0088
0.0042
0.0165
0.0273
0.0360
0.0420
0.0450
0.0448
0.0415
0.0354
0.0270
0.0169
0.0059
-0.0053
-0.0157
-0.0247
-0.0315
-0.0357
-0.0370
-0.0357
-0.0314
-0.0245
-0.0154
-0.0048
0.0065
0.0176
0.0277
0.0361
0.0420
0.0450
0.0448
0.0413
0.0348
0.0257
0.0144
0.0017
-0.0115
-0.0244
-0.0362
-0.0460
-0.0533
-0.0574
-0.0582
-0.0554
-0.0492
-0.0398
-0.0278
-0.0136
0.0018
0.0178
0.0336
0.0482
0.0609
0.0710
0.0781
0.0816
0.0814
0.0773
0.0695
0.0582
0.0438
0.0268
0.0078
-0.0124
-0.0332
-0.0539
-0.0736
-0.0917
-0.1075
-0.1206
-0.1304
-0.1365
-0.1387
-0.1369
-0.1310
-0.1210
-0.1070
-0.0894
-0.0683
-0.0441
-0.0172
0.0120
0.0431
0.0755
0.1090
0.1431
0.1774
0.2115
0.2451
0.2779
0.3096
0.3401
0.3691
0.3965
0.4222
0.4462
0.4684
0.4888
0.5074
0.5242
0.5394
0.5530
0.5651
0.5758
0.5851
0.5932
0.6002
0.6062
0.6113
0.6156
0.6192
0.6221
0.6245
0.6265
0.6280
0.6292
0.6300
0.6306
0.6310
0.6311
0.6310
0.6306
0.6300
0.6292
0.6280
0.6265
0.6245
0.6221
0.6192
0.6156
0.6113
0.6062
0.6002
0.5932
0.5851
0.5758
0.5651
0.5530
0.5394
0.5242
0.5074
0.4888
0.4684
0.4462
0.4222
0.3965
0.3691
0.3401
0.3096
0.2779
0.2451
0.2115
0.1774
0.1431
0.1090
0.0755
0.0431
0.0120
-0.0172
-0.0441
-0.0683
-0.0894
-0.1070
-0.1210
-0.1310
-0.1369
-0.1387
-0.1365
-0.1304
-0.1206
-0.1075
-0.0917
-0.0736
-0.0539
-0.0332
-0.0124
0.0078
0.0268
0.0438
0.0582
0.0695
0.0773
0.0814
0.0816
0.0781
0.0710
0.0609
0.0482
0.0336
0.0178
0.0018
-0.0136
-0.0278
-0.0398
-0.0492
-0.0554
-0.0582
-0.0574
-0.0533
-0.0460
-0.0362
-0.0244
-0.0115
0.0017
0.0144
0.0257
0.0348
0.0413
0.0448
0.0450
0.0420
0.0361
0.0277
0.0176
0.0065
-0.0048
-0.0154
-0.0245
-0.0314
-0.0357
-0.0315
-0.0245
-0.0153
-0.0046
0.0068
0.0181
0.0282
0.0365
0.0423
0.0451
0.0446
0.0407
0.0338
0.0242
0.0125
-0.0005
-0.0139
-0.0268
-0.0384
-0.0479
-0.0546
-0.0580
-0.0578
-0.0540
-0.0466
-0.0362
-0.0231
-0.0082
0.0079
0.0242
0.0399
0.0541
0.0659
0.0749
0.0803
0.0820
0.0796
0.0732
0.0630
0.0494
0.0328
0.0138
-0.0067
-0.0281
-0.0495
-0.0701
-0.0892
-0.1059
-0.1198
-0.1301
-0.1365
-0.1387
-0.1365
-0.1298
-0.1186
-0.1030
-0.0834
-0.0600
-0.0332
-0.0035
0.0287
0.0628
0.0985
0.1351
0.1722
0.2094
0.2461
0.2822
0.3171
0.3507
0.3826
0.4127
0.4409
0.4670
0.4910
0.5128
0.5325
0.5502
0.5658
0.5794
0.5913
0.6014
0.6100
0.6171
0.6229
0.6276
0.6312
0.6340
0.6359
0.6373
0.6381
0.6385
0.6386
0.6385
0.6383
0.6379
0.6376
0.6372
0.6370
0.6368
0.6368
0.6368
0.6370
0.6372
0.6376
0.6379
0.6383
0.6385
0.6386
0.6385
0.6381
0.6373
0.6359
0.6340
0.6312
0.6276
0.6229
0.6171
0.6100
0.6014
0.5913
0.5794
0.5658
0.5502
0.5325
0.5128
0.4910
0.4670
0.4409
0.4127
0.3826
0.3507
0.3171
0.2822
0.2461
0.2094
0.1722
0.1351
0.0985
0.0628
0.0287
-0.0035
-0.0332
-0.0600
-0.0834
-0.1030
-0.1186
-0.1298
-0.1365
-0.1387
-0.1365
-0.1301
-0.1198
-0.1059
-0.0892
-0.0701
-0.0495
-0.0281
-0.0067
0.0138
0.0328
0.0494
0.0630
0.0732
0.0796
0.0820
0.0803
0.0749
0.0659
0.0541
0.0399
0.0242
0.0079
-0.0082
-0.0231
-0.0362
-0.0466
-0.0540
-0.0578
-0.0580
-0.0546
-0.0479
-0.0384
-0.0268
-0.0139
-0.0005
0.0125
0.0242
0.0338
0.0407
0.0446
0.0451
0.0423
0.0365
0.0282
0.0181
0.0068
-0.0046
-0.0153
-0.0245
-0.0315
-0.0247
-0.0154
-0.0046
0.0069
0.0183
0.0285
0.0368
0.0425
0.0452
0.0444
0.0402
0.0329
0.0229
0.0109
-0.0023
-0.0159
-0.0289
-0.0403
-0.0494
-0.0556
-0.0582
-0.0572
-0.0524
-0.0440
-0.0326
-0.0186
-0.0029
0.0136
0.0301
0.0456
0.0592
0.0702
0.0778
0.0816
0.0813
0.0768
0.0681
0.0557
0.0398
0.0212
0.0006
-0.0212
-0.0433
-0.0648
-0.0850
-0.1028
-0.1177
-0.1290
-0.1361
-0.1387
-0.1366
-0.1295
-0.1175
-0.1008
-0.0797
-0.0544
-0.0254
0.0069
0.0418
0.0788
0.1173
0.1568
0.1967
0.2365
0.2757
0.3139
0.3507
0.3857
0.4187
0.4496
0.4780
0.5040
0.5274
0.5484
0.5668
0.5827
0.5964
0.6078
0.6171
0.6245
0.6302
0.6342
0.6369
0.6383
0.6386
0.6381
0.6368
0.6350
0.6327
0.6301
0.6273
0.6244
0.6216
0.6189
0.6164
0.6142
0.6123
0.6108
0.6097
0.6090
0.6088
0.6090
0.6097
0.6108
0.6123
0.6142
0.6164
0.6189
0.6216
0.6244
0.6273
0.6301
0.6327
0.6350
0.6368
0.6381
0.6386
0.6383
0.6369
0.6342
0.6302
0.6245
0.6171
0.6078
0.5964
0.5827
0.5668
0.5484
0.5274
0.5040
0.4780
0.4496
0.4187
0.3857
0.3507
0.3139
0.2757
0.2365
0.1967
0.1568
0.1173
0.0788
0.0418
0.0069
-0.0254
-0.0544
-0.0797
-0.1008
-0.1175
-0.1295
-0.1366
-0.1387
-0.1361
-0.1290
-0.1177
-0.1028
-0.0850
-0.0648
-0.0433
-0.0212
0.0006
0.0212
0.0398
0.0557
0.0681
0.0768
0.0813
0.0816
0.0778
0.0702
0.0592
0.0456
0.0301
0.0136
-0.0029
-0.0186
-0.0326
-0.0440
-0.0524
-0.0572
-0.0582
-0.0556
-0.0494
-0.0403
-0.0289
-0.0159
-0.0023
0.0109
0.0229
0.0329
0.0402
0.0444
0.0452
0.0425
0.0368
0.0285
0.0183
0.0069
-0.0046
-0.0154
-0.0247
-0.0157
-0.0048
0.0068
0.0183
0.0286
0.0370
0.0427
0.0452
0.0443
0.0399
0.0322
0.0219
0.0096
-0.0039
-0.0177
-0.0306
-0.0419
-0.0507
-0.0563
-0.0583
-0.0565
-0.0508
-0.0415
-0.0291
-0.0144
0.0019
0.0189
0.0354
0.0507
0.0636
0.0736
0.0798
0.0820
0.0798
0.0731
0.0623
0.0477
0.0299
0.0096
-0.0124
-0.0351
-0.0576
-0.0789
-0.0981
-0.1143
-0.1269
-0.1352
-0.1386
-0.1370
-0.1301
-0.1180
-0.1006
-0.0784
-0.0516
-0.0208
0.0136
0.0509
0.0904
0.1316
0.1738
0.2162
0.2585
0.2999
0.3401
0.3784
0.4147
0.4486
0.4798
0.5082
0.5337
0.5562
0.5758
0.5924
0.6062
0.6173
0.6259
0.6321
0.6361
0.6382
0.6386
0.6374
0.6349
0.6312
0.6267
0.6214
0.6156
0.6095
0.6031
0.5967
0.5903
0.5841
0.5782
0.5726
0.5676
0.5631
0.5591
0.5559
0.5533
0.5514
0.5503
0.5499
0.5503
0.5514
0.5533
0.5559
0.5591
0.5631
0.5676
0.5726
0.5782
0.5841
0.5903
0.5967
0.6031
0.6095
0.6156
0.6214
0.6267
0.6312
0.6349
0.6374
0.6386
0.6382
0.6361
0.6321
0.6259
0.6173
0.6062
0.5924
0.5758
0.5562
0.5337
0.5082
0.4798
0.4486
0.4147
0.3784
0.3401
0.2999
0.2585
0.2162
0.1738
0.1316
0.0904
0.0509
0.0136
-0.0208
-0.0516
-0.0784
-0.1006
-0.1180
-0.1301
-0.1370
-0.1386
-0.1352
-0.1269
-0.1143
-0.0981
-0.0789
-0.0576
-0.0351
-0.0124
0.0096
0.0299
0.0477
0.0623
0.0731
0.0798
0.0820
0.0798
0.0736
0.0636
0.0507
0.0354
0.0189
0.0019
-0.0144
-0.0291
-0.0415
-0.0508
-0.0565
-0.0583
-0.0563
-0.0507
-0.0419
-0.0306
-0.0177
-0.0039
0.0096
0.0219
0.0322
0.0399
0.0443
0.0452
0.0427
0.0370
0.0286
0.0183
0.0068
-0.0048
-0.0157
-0.0053
0.0065
0.0181
0.0285
0.0370
0.0427
0.0452
0.0442
0.0396
0.0317
0.0211
0.0085
-0.0052
-0.0191
-0.0321
-0.0432
-0.0517
-0.0569
-0.0583
-0.0557
-0.0491
-0.0390
-0.0258
-0.0104
0.0064
0.0237
0.0402
0.0551
0.0674
0.0763
0.0812
0.0816
0.0775
0.0689
0.0560
0.0394
0.0198
-0.0020
-0.0251
-0.0484
-0.0709
-0.0915
-0.1094
-0.1236
-0.1334
-0.1383
-0.1378
-0.1317
-0.1198
-0.1024
-0.0797
-0.0519
-0.0197
0.0164
0.0557
0.0975
0.1411
0.1857
0.2306
0.2752
0.3187
0.3607
0.4006
0.4380
0.4725
0.5040
0.5321
0.5569
0.5782
0.5961
0.6106
0.6219
0.6302
0.6355
0.6382
0.6385
0.6366
0.6328
0.6273
0.6204
0.6123
0.6033
0.5937
0.5835
0.5730
0.5624
0.5518
0.5414
0.5313
0.5217
0.5125
0.5041
0.4963
0.4893
0.4831
0.4778
0.4734
0.4700
0.4675
0.4660
0.4655
0.4660
0.4675
0.4700
0.4734
0.4778
0.4831
0.4893
0.4963
0.5041
0.5125
0.5217
0.5313
0.5414
0.5518
0.5624
0.5730
0.5835
0.5937
0.6033
0.6123
0.6204
0.6273
0.6328
0.6366
0.6385
0.6382
0.6355
0.6302
0.6219
0.6106
0.5961
0.5782
0.5569
0.5321
0.5040
0.4725
0.4380
0.4006
0.3607
0.3187
0.2752
0.2306
0.1857
0.1411
0.0975
0.0557
0.0164
-0.0197
-0.0519
-0.0797
-0.1024
-0.1198
-0.1317
-0.1378
-0.1383
-0.1334
-0.1236
-0.1094
-0.0915
-0.0709
-0.0484
-0.0251
-0.0020
0.0198
0.0394
0.0560
0.0689
0.0775
0.0816
0.0812
0.0763
0.0674
0.0551
0.0402
0.0237
0.0064
-0.0104
-0.0258
-0.0390
-0.0491
-0.0557
-0.0583
-0.0569
-0.0517
-0.0432
-0.0321
-0.0191
-0.0052
0.0085
0.0211
0.0317
0.0396
0.0442
0.0452
0.0427
0.0370
0.0285
0.0181
0.0065
-0.0053
0.0059
0.0176
0.0282
0.0368
0.0427
0.0452
0.0441
0.0394
0.0314
0.0206
0.0078
-0.0062
-0.0202
-0.0332
-0.0443
-0.0525
-0.0573
-0.0581
-0.0549
-0.0476
-0.0367
-0.0228
-0.0068
0.0105
0.0280
0.0445
0.0590
0.0705
0.0783
0.0818
0.0807
0.0747
0.0642
0.0494
0.0310
0.0097
-0.0133
-0.0372
-0.0608
-0.0829
-0.1025
-0.1187
-0.1305
-0.1373
-0.1385
-0.1338
-0.1229
-0.1061
-0.0834
-0.0553
-0.0222
0.0152
0.0561
0.0999
0.1456
0.1925
0.2397
0.2865
0.3321
0.3758
0.4172
0.4557
0.4910
0.5226
0.5505
0.5745
0.5945
0.6106
0.6229
0.6316
0.6367
0.6386
0.6376
0.6338
0.6277
0.6195
0.6095
0.5980
0.5853
0.5716
0.5573
0.5426
0.5276
0.5125
0.4977
0.4831
0.4690
0.4555
0.4426
0.4306
0.4193
0.4090
0.3997
0.3913
0.3840
0.3778
0.3727
0.3687
0.3659
0.3642
0.3636
0.3642
0.3659
0.3687
0.3727
0.3778
0.3840
0.3913
0.3997
0.4090
0.4193
0.4306
0.4426
0.4555
0.4690
0.4831
0.4977
0.5125
0.5276
0.5426
0.5573
0.5716
0.5853
0.5980
0.6095
0.6195
0.6277
0.6338
0.6376
0.6386
0.6367
0.6316
0.6229
0.6106
0.5945
0.5745
0.5505
0.5226
0.4910
0.4557
0.4172
0.3758
0.3321
0.2865
0.2397
0.1925
0.1456
0.0999
0.0561
0.0152
-0.0222
-0.0553
-0.0834
-0.1061
-0.1229
-0.1338
-0.1385
-0.1373
-0.1305
-0.1187
-0.1025
-0.0829
-0.0608
-0.0372
-0.0133
0.0097
0.0310
0.0494
0.0642
0.0747
0.0807
0.0818
0.0783
0.0705
0.0590
0.0445
0.0280
0.0105
-0.0068
-0.0228
-0.0367
-0.0476
-0.0549
-0.0581
-0.0573
-0.0525
-0.0443
-0.0332
-0.0202
-0.0062
0.0078
0.0206
0.0314
0.0394
0.0441
0.0452
0.0427
0.0368
0.0282
0.0176
0.0059
0.0169
0.0277
0.0365
0.0425
0.0452
0.0442
0.0394
0.0313
0.0204
0.0073
-0.0068
-0.0209
-0.0340
-0.0451
-0.0531
-0.0576
-0.0580
-0.0541
-0.0462
-0.0347
-0.0201
-0.0035
0.0142
0.0318
0.0482
0.0622
0.0731
0.0798
0.0820
0.0792
0.0716
0.0592
0.0426
0.0225
-0.0001
-0.0242
-0.0486
-0.0721
-0.0936
-0.1120
-0.1261
-0.1353
-0.1387
-0.1360
-0.1269
-0.1113
-0.0894
-0.0615
-0.0281
0.0100
0.0522
0.0975
0.1451
0.1941
0.2435
0.2924
0.3401
0.3857
0.4287
0.4684
0.5044
0.5364
0.5641
0.5874
0.6062
0.6206
0.6306
0.6366
0.6386
0.6371
0.6322
0.6244
0.6140
0.6013
0.5868
0.5706
0.5533
0.5350
0.5160
0.4968
0.4773
0.4580
0.4390
0.4204
0.4024
0.3852
0.3687
0.3532
0.3387
0.3252
0.3129
0.3016
0.2915
0.2825
0.2748
0.2682
0.2628
0.2586
0.2556
0.2538
0.2532
0.2538
0.2556
0.2586
0.2628
0.2682
0.2748
0.2825
0.2915
0.3016
0.3129
0.3252
0.3387
0.3532
0.3687
0.3852
0.4024
0.4204
0.4390
0.4580
0.4773
0.4968
0.5160
0.5350
0.5533
0.5706
0.5868
0.6013
0.6140
0.6244
0.6322
0.6371
0.6386
0.6366
0.6306
0.6206
0.6062
0.5874
0.5641
0.5364
0.5044
0.4684
0.4287
0.3857
0.3401
0.2924
0.2435
0.1941
0.1451
0.0975
0.0522
0.0100
-0.0281
-0.0615
-0.0894
-0.1113
-0.1269
-0.1360
-0.1387
-0.1353
-0.1261
-0.1120
-0.0936
-0.0721
-0.0486
-0.0242
-0.0001
0.0225
0.0426
0.0592
0.0716
0.0792
0.0820
0.0798
0.0731
0.0622
0.0482
0.0318
0.0142
-0.0035
-0.0201
-0.0347
-0.0462
-0.0541
-0.0580
-0.0576
-0.0531
-0.0451
-0.0340
-0.0209
-0.0068
0.0073
0.0204
0.0313
0.0394
0.0442
0.0452
0.0425
0.0365
0.0277
0.0169
0.0270
0.0361
0.0423
0.0452
0.0443
0.0396
0.0314
0.0204
0.0072
-0.0071
-0.0214
-0.0346
-0.0456
-0.0536
-0.0578
-0.0578
-0.0535
-0.0450
-0.0328
-0.0177
-0.0006
0.0174
0.0351
0.0514
0.0650
0.0751
0.0808
0.0817
0.0775
0.0681
0.0541
0.0358
0.0143
-0.0095
-0.0344
-0.0591
-0.0824
-0.1030
-0.1198
-0.1317
-0.1379
-0.1379
-0.1311
-0.1175
-0.0971
-0.0702
-0.0372
0.0011
0.0439
0.0904
0.1396
0.1904
0.2419
0.2929
0.3427
0.3903
0.4350
0.4762
0.5132
0.5458
0.5736
0.5964
0.6142
0.6270
0.6351
0.6385
0.6376
0.6327
0.6241
0.6123
0.5977
0.5807
0.5616
0.5410
0.5191
0.4963
0.4730
0.4494
0.4258
0.4024
0.3795
0.3573
0.3358
0.3152
0.2957
0.2772
0.2598
0.2437
0.2287
0.2150
0.2025
0.1913
0.1812
0.1725
0.1649
0.1585
0.1533
0.1492
0.1464
0.1446
0.1441
0.1446
0.1464
0.1492
0.1533
0.1585
0.1649
0.1725
0.1812
0.1913
0.2025
0.2150
0.2287
0.2437
0.2598
0.2772
0.2957
0.3152
0.3358
0.3573
0.3795
0.4024
0.4258
0.4494
0.4730
0.4963
0.5191
0.5410
0.5616
0.5807
0.5977
0.6123
0.6241
0.6327
0.6376
0.6385
0.6351
0.6270
0.6142
0.5964
0.5736
0.5458
0.5132
0.4762
0.4350
0.3903
0.3427
0.2929
0.2419
0.1904
0.1396
0.0904
0.0439
0.0011
-0.0372
-0.0702
-0.0971
-0.1175
-0.1311
-0.1379
-0.1379
-0.1317
-0.1198
-0.1030
-0.0824
-0.0591
-0.0344
-0.0095
0.0143
0.0358
0.0541
0.0681
0.0775
0.0817
0.0808
0.0751
0.0650
0.0514
0.0351
0.0174
-0.0006
-0.0177
-0.0328
-0.0450
-0.0535
-0.0578
-0.0578
-0.0536
-0.0456
-0.0346
-0.0214
-0.0071
0.0072
0.0204
0.0314
0.0396
0.0443
0.0452
0.0423
0.0361
0.0270
0.0354
0.0420
0.0451
0.0444
0.0399
0.0317
0.0206
0.0073
-0.0071
-0.0216
-0.0349
-0.0459
-0.0539
-0.0579
-0.0576
-0.0529
-0.0440
-0.0313
-0.0157
0.0018
0.0201
0.0380
0.0541
0.0673
0.0767
0.0815
0.0811
0.0755
0.0646
0.0490
0.0293
0.0064
-0.0184
-0.0439
-0.0687
-0.0915
-0.1110
-0.1260
-0.1355
-0.1387
-0.1351
-0.1242
-0.1061
-0.0809
-0.0491
-0.0114
0.0316
0.0788
0.1291
0.1815
0.2349
0.2881
0.3401
0.3898
0.4365
0.4794
0.5178
0.5512
0.5794
0.6022
0.6193
0.6310
0.6373
0.6385
0.6349
0.6269
0.6148
0.5993
0.5807
0.5595
0.5362
0.5112
0.4850
0.4580
0.4306
0.4030
0.3756
0.3486
0.3223
0.2968
0.2724
0.2490
0.2269
0.2061
0.1865
0.1684
0.1515
0.1361
0.1219
0.1091
0.0975
0.0872
0.0781
0.0702
0.0634
0.0577
0.0531
0.0496
0.0470
0.0455
0.0450
0.0455
0.0470
0.0496
0.0531
0.0577
0.0634
0.0702
0.0781
0.0872
0.0975
0.1091
0.1219
0.1361
0.1515
0.1684
0.1865
0.2061
0.2269
0.2490
0.2724
0.2968
0.3223
0.3486
0.3756
0.4030
0.4306
0.4580
0.4850
0.5112
0.5362
0.5595
0.5807
0.5993
0.6148
0.6269
0.6349
0.6385
0.6373
0.6310
0.6193
0.6022
0.5794
0.5512
0.5178
0.4794
0.4365
0.3898
0.3401
0.2881
0.2349
0.1815
0.1291
0.0788
0.0316
-0.0114
-0.0491
-0.0809
-0.1061
-0.1242
-0.1351
-0.1387
-0.1355
-0.1260
-0.1110
-0.0915
-0.0687
-0.0439
-0.0184
0.0064
0.0293
0.0490
0.0646
0.0755
0.0811
0.0815
0.0767
0.0673
0.0541
0.0380
0.0201
0.0018
-0.0157
-0.0313
-0.0440
-0.0529
-0.0576
-0.0579
-0.0539
-0.0459
-0.0349
-0.0216
-0.0071
0.0073
0.0206
0.0317
0.0399
0.0444
0.0451
0.0420
0.0354
0.0415
0.0450
0.0446
0.0402
0.0322
0.0211
0.0078
-0.0068
-0.0214
-0.0349
-0.0461
-0.0540
-0.0580
-0.0575
-0.0525
-0.0432
-0.0301
-0.0141
0.0039
0.0224
0.0403
0.0563
0.0692
0.0780
0.0818
0.0804
0.0734
0.0611
0.0441
0.0230
-0.0010
-0.0266
-0.0525
-0.0773
-0.0995
-0.1177
-0.1308
-0.1378
-0.1379
-0.1305
-0.1155
-0.0930
-0.0632
-0.0267
0.0156
0.0628
0.1139
0.1676
0.2226
0.2779
0.3321
0.3841
0.4331
0.4780
0.5182
0.5530
0.5821
0.6053
0.6223
0.6332
0.6382
0.6376
0.6317
0.6209
0.6058
0.5868
0.5645
0.5394
0.5121
0.4831
0.4529
0.4220
0.3908
0.3596
0.3288
0.2986
0.2694
0.2413
0.2144
0.1889
0.1649
0.1423
0.1214
0.1019
0.0840
0.0676
0.0526
0.0390
0.0268
0.0158
0.0061
-0.0025
-0.0100
-0.0164
-0.0219
-0.0265
-0.0301
-0.0329
-0.0349
-0.0361
-0.0365
-0.0361
-0.0349
-0.0329
-0.0301
-0.0265
-0.0219
-0.0164
-0.0100
-0.0025
0.0061
0.0158
0.0268
0.0390
0.0526
0.0676
0.0840
0.1019
0.1214
0.1423
0.1649
0.1889
0.2144
0.2413
0.2694
0.2986
0.3288
0.3596
0.3908
0.4220
0.4529
0.4831
0.5121
0.5394
0.5645
0.5868
0.6058
0.6209
0.6317
0.6376
0.6382
0.6332
0.6223
0.6053
0.5821
0.5530
0.5182
0.4780
0.4331
0.3841
0.3321
0.2779
0.2226
0.1676
0.1139
0.0628
0.0156
-0.0267
-0.0632
-0.0930
-0.1155
-0.1305
-0.1379
-0.1378
-0.1308
-0.1177
-0.0995
-0.0773
-0.0525
-0.0266
-0.0010
0.0230
0.0441
0.0611
0.0734
0.0804
0.0818
0.0780
0.0692
0.0563
0.0403
0.0224
0.0039
-0.0141
-0.0301
-0.0432
-0.0525
-0.0575
-0.0580
-0.0540
-0.0461
-0.0349
-0.0214
-0.0068
0.0078
0.0211
0.0322
0.0402
0.0446
0.0450
0.0415
0.0448
0.0448
0.0407
0.0329
0.0219
0.0085
-0.0062
-0.0209
-0.0346
-0.0459
-0.0540
-0.0580
-0.0574
-0.0522
-0.0426
-0.0292
-0.0128
0.0054
0.0242
0.0422
0.0581
0.0707
0.0789
0.0820
0.0795
0.0713
0.0578
0.0394
0.0172
-0.0078
-0.0342
-0.0604
-0.0850
-0.1064
-0.1232
-0.1344
-0.1387
-0.1356
-0.1246
-0.1055
-0.0786
-0.0444
-0.0035
0.0431
0.0942
0.1487
0.2051
0.2623
0.3187
0.3732
0.4247
0.4721
0.5145
0.5512
0.5818
0.6060
0.6234
0.6342
0.6385
0.6366
0.6289
0.6158
0.5980
0.5759
0.5503
0.5217
0.4907
0.4580
0.4242
0.3897
0.3550
0.3205
0.2867
0.2538
0.2221
0.1919
0.1631
0.1361
0.1107
0.0872
0.0655
0.0455
0.0273
0.0107
-0.0042
-0.0177
-0.0297
-0.0404
-0.0499
-0.0582
-0.0654
-0.0717
-0.0771
-0.0817
-0.0855
-0.0886
-0.0911
-0.0930
-0.0944
-0.0952
-0.0954
-0.0952
-0.0944
-0.0930
-0.0911
-0.0886
-0.0855
-0.0817
-0.0771
-0.0717
-0.0654
-0.0582
-0.0499
-0.0404
-0.0297
-0.0177
-0.0042
0.0107
0.0273
0.0455
0.0655
0.0872
0.1107
0.1361
0.1631
0.1919
0.2221
0.2538
0.2867
0.3205
0.3550
0.3897
0.4242
0.4580
0.4907
0.5217
0.5503
0.5759
0.5980
0.6158
0.6289
0.6366
0.6385
0.6342
0.6234
0.6060
0.5818
0.5512
0.5145
0.4721
0.4247
0.3732
0.3187
0.2623
0.2051
0.1487
0.0942
0.0431
-0.0035
-0.0444
-0.0786
-0.1055
-0.1246
-0.1356
-0.1387
-0.1344
-0.1232
-0.1064
-0.0850
-0.0604
-0.0342
-0.0078
0.0172
0.0394
0.0578
0.0713
0.0795
0.0820
0.0789
0.0707
0.0581
0.0422
0.0242
0.0054
-0.0128
-0.0292
-0.0426
-0.0522
-0.0574
-0.0580
-0.0540
-0.0459
-0.0346
-0.0209
-0.0062
0.0085
0.0219
0.0329
0.0407
0.0448
0.0448
0.0450
0.0413
0.0338
0.0229
0.0096
-0.0052
-0.0202
-0.0340
-0.0456
-0.0539
-0.0580
-0.0574
-0.0522
-0.0424
-0.0287
-0.0120
0.0066
0.0256
0.0437
0.0596
0.0719
0.0796
0.0820
0.0786
0.0694
0.0546
0.0351
0.0118
-0.0141
-0.0410
-0.0674
-0.0917
-0.1122
-0.1277
-0.1367
-0.1384
-0.1322
-0.1175
-0.0945
-0.0635
-0.0250
0.0200
0.0705
0.1252
0.1826
0.2413
0.2999
0.3570
0.4112
0.4614
0.5065
0.5458
0.5785
0.6043
0.6229
0.6343
0.6386
0.6361
0.6271
0.6123
0.5923
0.5676
0.5390
0.5072
0.4730
0.4369
0.3997
0.3619
0.3241
0.2867
0.2502
0.2150
0.1812
0.1492
0.1191
0.0910
0.0650
0.0410
0.0192
-0.0007
-0.0185
-0.0345
-0.0488
-0.0613
-0.0724
-0.0820
-0.0903
-0.0975
-0.1036
-0.1088
-0.1132
-0.1169
-0.1199
-0.1224
-0.1245
-0.1260
-0.1273
-0.1282
-0.1288
-0.1292
-0.1293
-0.1292
-0.1288
-0.1282
-0.1273
-0.1260
-0.1245
-0.1224
-0.1199
-0.1169
-0.1132
-0.1088
-0.1036
-0.0975
-0.0903
-0.0820
-0.0724
-0.0613
-0.0488
-0.0345
-0.0185
-0.0007
0.0192
0.0410
0.0650
0.0910
0.1191
0.1492
0.1812
0.2150
0.2502
0.2867
0.3241
0.3619
0.3997
0.4369
0.4730
0.5072
0.5390
0.5676
0.5923
0.6123
0.6271
0.6361
0.6386
0.6343
0.6229
0.6043
0.5785
0.5458
0.5065
0.4614
0.4112
0.3570
0.2999
0.2413
0.1826
0.1252
0.0705
0.0200
-0.0250
-0.0635
-0.0945
-0.1175
-0.1322
-0.1384
-0.1367
-0.1277
-0.1122
-0.0917
-0.0674
-0.0410
-0.0141
0.0118
0.0351
0.0546
0.0694
0.0786
0.0820
0.0796
0.0719
0.0596
0.0437
0.0256
0.0066
-0.0120
-0.0287
-0.0424
-0.0522
-0.0574
-0.0580
-0.0539
-0.0456
-0.0340
-0.0202
-0.0052
0.0096
0.0229
0.0338
0.0413
0.0450
0.0420
0.0348
0.0242
0.0109
-0.0039
-0.0191
-0.0332
-0.0451
-0.0536
-0.0579
-0.0575
-0.0522
-0.0424
-0.0285
-0.0116
0.0072
0.0265
0.0448
0.0606
0.0727
0.0801
0.0819
0.0777
0.0676
0.0518
0.0313
0.0070
-0.0197
-0.0471
-0.0736
-0.0975
-0.1171
-0.1311
-0.1381
-0.1372
-0.1279
-0.1097
-0.0829
-0.0479
-0.0054
0.0435
0.0975
0.1553
0.2152
0.2757
0.3353
0.3924
0.4457
0.4941
0.5364
0.5720
0.6002
0.6207
0.6335
0.6385
0.6361
0.6267
0.6108
0.5891
0.5624
0.5313
0.4968
0.4595
0.4204
0.3801
0.3393
0.2986
0.2586
0.2198
0.1824
0.1469
0.1135
0.0824
0.0536
0.0273
0.0034
-0.0181
-0.0373
-0.0542
-0.0691
-0.0820
-0.0930
-0.1024
-0.1103
-0.1169
-0.1223
-0.1266
-0.1300
-0.1327
-0.1347
-0.1362
-0.1372
-0.1379
-0.1384
-0.1386
-0.1387
-0.1387
-0.1387
-0.1387
-0.1386
-0.1386
-0.1386
-0.1387
-0.1387
-0.1387
-0.1387
-0.1386
-0.1384
-0.1379
-0.1372
-0.1362
-0.1347
-0.1327
-0.1300
-0.1266
-0.1223
-0.1169
-0.1103
-0.1024
-0.0930
-0.0820
-0.0691
-0.0542
-0.0373
-0.0181
0.0034
0.0273
0.0536
0.0824
0.1135
0.1469
0.1824
0.2198
0.2586
0.2986
0.3393
0.3801
0.4204
0.4595
0.4968
0.5313
0.5624
0.5891
0.6108
0.6267
0.6361
0.6385
0.6335
0.6207
0.6002
0.5720
0.5364
0.4941
0.4457
0.3924
0.3353
0.2757
0.2152
0.1553
0.0975
0.0435
-0.0054
-0.0479
-0.0829
-0.1097
-0.1279
-0.1372
-0.1381
-0.1311
-0.1171
-0.0975
-0.0736
-0.0471
-0.0197
0.0070
0.0313
0.0518
0.0676
0.0777
0.0819
0.0801
0.0727
0.0606
0.0448
0.0265
0.0072
-0.0116
-0.0285
-0.0424
-0.0522
-0.0575
-0.0579
-0.0536
-0.0451
-0.0332
-0.0191
-0.0039
0.0109
0.0242
0.0348
0.0420
0.0360
0.0257
0.0125
-0.0023
-0.0177
-0.0321
-0.0443
-0.0531
-0.0578
-0.0576
-0.0525
-0.0426
-0.0287
-0.0116
0.0075
0.0270
0.0454
0.0613
0.0733
0.0804
0.0817
0.0769
0.0660
0.0494
0.0279
0.0028
-0.0245
-0.0524
-0.0789
-0.1024
-0.1211
-0.1337
-0.1387
-0.1353
-0.1229
-0.1014
-0.0710
-0.0322
0.0140
0.0664
0.1237
0.1841
0.2461
0.3080
0.3680
0.4247
0.4766
0.5226
0.5617
0.5932
0.6165
0.6316
0.6382
0.6368
0.6277
0.6115
0.5888
0.5606
0.5276
0.4907
0.4509
0.4090
0.3659
0.3223
0.2790
0.2365
0.1954
0.1562
0.1191
0.0845
0.0526
0.0234
-0.0029
-0.0265
-0.0473
-0.0654
-0.0811
-0.0944
-0.1055
-0.1146
-0.1220
-0.1277
-0.1320
-0.1351
-0.1371
-0.1383
-0.1387
-0.1386
-0.1380
-0.1370
-0.1358
-0.1345
-0.1331
-0.1318
-0.1304
-0.1293
-0.1282
-0.1274
-0.1268
-0.1264
-0.1263
-0.1264
-0.1268
-0.1274
-0.1282
-0.1293
-0.1304
-0.1318
-0.1331
-0.1345
-0.1358
-0.1370
-0.1380
-0.1386
-0.1387
-0.1383
-0.1371
-0.1351
-0.1320
-0.1277
-0.1220
-0.1146
-0.1055
-0.0944
-0.0811
-0.0654
-0.0473
-0.0265
-0.0029
0.0234
0.0526
0.0845
0.1191
0.1562
0.1954
0.2365
0.2790
0.3223
0.3659
0.4090
0.4509
0.4907
0.5276
0.5606
0.5888
0.6115
0.6277
0.6368
0.6382
0.6316
0.6165
0.5932
0.5617
0.5226
0.4766
0.4247
0.3680
0.3080
0.2461
0.1841
0.1237
0.0664
0.0140
-0.0322
-0.0710
-0.1014
-0.1229
-0.1353
-0.1387
-0.1337
-0.1211
-0.1024
-0.0789
-0.0524
-0.0245
0.0028
0.0279
0.0494
0.0660
0.0769
0.0817
0.0804
0.0733
0.0613
0.0454
0.0270
0.0075
-0.0116
-0.0287
-0.0426
-0.0525
-0.0576
-0.0578
-0.0531
-0.0443
-0.0321
-0.0177
-0.0023
0.0125
0.0257
0.0360
0.0273
0.0144
-0.0005
-0.0159
-0.0306
-0.0432
-0.0525
-0.0576
-0.0578
-0.0529
-0.0432
-0.0292
-0.0120
0.0072
0.0270
0.0456
0.0616
0.0737
0.0806
0.0816
0.0763
0.0647
0.0473
0.0251
-0.0008
-0.0287
-0.0569
-0.0834
-0.1065
-0.1244
-0.1355
-0.1387
-0.1329
-0.1177
-0.0930
-0.0591
-0.0168
0.0328
0.0885
0.1487
0.2115
0.2752
0.3379
0.3980
0.4538
0.5040
0.5473
0.5827
0.6098
0.6280
0.6373
0.6378
0.6299
0.6142
0.5914
0.5624
0.5280
0.4893
0.4473
0.4030
0.3573
0.3111
0.2652
0.2204
0.1771
0.1361
0.0975
0.0618
0.0292
-0.0002
-0.0265
-0.0495
-0.0694
-0.0864
-0.1005
-0.1120
-0.1211
-0.1281
-0.1331
-0.1364
-0.1382
-0.1387
-0.1382
-0.1369
-0.1348
-0.1322
-0.1293
-0.1261
-0.1227
-0.1193
-0.1160
-0.1128
-0.1098
-0.1071
-0.1046
-0.1024
-0.1007
-0.0992
-0.0982
-0.0976
-0.0974
-0.0976
-0.0982
-0.0992
-0.1007
-0.1024
-0.1046
-0.1071
-0.1098
-0.1128
-0.1160
-0.1193
-0.1227
-0.1261
-0.1293
-0.1322
-0.1348
-0.1369
-0.1382
-0.1387
-0.1382
-0.1364
-0.1331
-0.1281
-0.1211
-0.1120
-0.1005
-0.0864
-0.0694
-0.0495
-0.0265
-0.0002
0.0292
0.0618
0.0975
0.1361
0.1771
0.2204
0.2652
0.3111
0.3573
0.4030
0.4473
0.4893
0.5280
0.5624
0.5914
0.6142
0.6299
0.6378
0.6373
0.6280
0.6098
0.5827
0.5473
0.5040
0.4538
0.3980
0.3379
0.2752
0.2115
0.1487
0.0885
0.0328
-0.0168
-0.0591
-0.0930
-0.1177
-0.1329
-0.1387
-0.1355
-0.1244
-0.1065
-0.0834
-0.0569
-0.0287
-0.0008
0.0251
0.0473
0.0647
0.0763
0.0816
0.0806
0.0737
0.0616
0.0456
0.0270
0.0072
-0.0120
-0.0292
-0.0432
-0.0529
-0.0578
-0.0576
-0.0525
-0.0432
-0.0306
-0.0159
-0.0005
0.0144
0.0273
0.0165
0.0017
-0.0139
-0.0289
-0.0419
-0.0517
-0.0573
-0.0580
-0.0535
-0.0440
-0.0301
-0.0128
0.0066
0.0265
0.0454
0.0616
0.0738
0.0807
0.0815
0.0759
0.0638
0.0458
0.0229
-0.0037
-0.0321
-0.0606
-0.0872
-0.1099
-0.1270
-0.1368
-0.1382
-0.1301
-0.1123
-0.0846
-0.0476
-0.0020
0.0509
0.1095
0.1722
0.2370
0.3021
0.3654
0.4252
0.4798
0.5278
0.5681
0.5997
0.6221
0.6351
0.6386
0.6330
0.6187
0.5967
0.5676
0.5325
0.4926
0.4488
0.4024
0.3544
0.3058
0.2574
0.2102
0.1649
0.1219
0.0819
0.0450
0.0116
-0.0181
-0.0442
-0.0668
-0.0858
-0.1015
-0.1140
-0.1237
-0.1307
-0.1354
-0.1380
-0.1387
-0.1380
-0.1359
-0.1328
-0.1288
-0.1242
-0.1192
-0.1138
-0.1084
-0.1028
-0.0974
-0.0921
-0.0871
-0.0823
-0.0779
-0.0739
-0.0703
-0.0671
-0.0644
-0.0622
-0.0605
-0.0592
-0.0585
-0.0582
-0.0585
-0.0592
-0.0605
-0.0622
-0.0644
-0.0671
-0.0703
-0.0739
-0.0779
-0.0823
-0.0871
-0.0921
-0.0974
-0.1028
-0.1084
-0.1138
-0.1192
-0.1242
-0.1288
-0.1328
-0.1359
-0.1380
-0.1387
-0.1380
-0.1354
-0.1307
-0.1237
-0.1140
-0.1015
-0.0858
-0.0668
-0.0442
-0.0181
0.0116
0.0450
0.0819
0.1219
0.1649
0.2102
0.2574
0.3058
0.3544
0.4024
0.4488
0.4926
0.5325
0.5676
0.5967
0.6187
0.6330
0.6386
0.6351
0.6221
0.5997
0.5681
0.5278
0.4798
0.4252
0.3654
0.3021
0.2370
0.1722
0.1095
0.0509
-0.0020
-0.0476
-0.0846
-0.1123
-0.1301
-0.1382
-0.1368
-0.1270
-0.1099
-0.0872
-0.0606
-0.0321
-0.0037
0.0229
0.0458
0.0638
0.0759
0.0815
0.0807
0.0738
0.0616
0.0454
0.0265
0.0066
-0.0128
-0.0301
-0.0440
-0.0535
-0.0580
-0.0573
-0.0517
-0.0419
-0.0289
-0.0139
0.0017
0.0165
0.0042
-0.0115
-0.0268
-0.0403
-0.0507
-0.0569
-0.0581
-0.0541
-0.0450
-0.0313
-0.0141
0.0054
0.0256
0.0448
0.0613
0.0737
0.0807
0.0815
0.0757
0.0632
0.0447
0.0212
-0.0058
-0.0347
-0.0636
-0.0902
-0.1126
-0.1290
-0.1377
-0.1374
-0.1273
-0.1070
-0.0766
-0.0366
0.0120
0.0678
0.1291
0.1941
0.2606
0.3267
0.3903
0.4496
0.5027
0.5484
0.5854
0.6130
0.6306
0.6383
0.6361
0.6244
0.6041
0.5759
0.5410
0.5004
0.4555
0.4074
0.3573
0.3063
0.2556
0.2061
0.1585
0.1135
0.0718
0.0336
-0.0007
-0.0309
-0.0571
-0.0793
-0.0975
-0.1120
-0.1231
-0.1309
-0.1359
-0.1384
-0.1386
-0.1369
-0.1336
-0.1289
-0.1233
-0.1168
-0.1098
-0.1024
-0.0949
-0.0873
-0.0798
-0.0724
-0.0654
-0.0587
-0.0524
-0.0466
-0.0412
-0.0363
-0.0319
-0.0281
-0.0247
-0.0219
-0.0196
-0.0178
-0.0166
-0.0158
-0.0155
-0.0158
-0.0166
-0.0178
-0.0196
-0.0219
-0.0247
-0.0281
-0.0319
-0.0363
-0.0412
-0.0466
-0.0524
-0.0587
-0.0654
-0.0724
-0.0798
-0.0873
-0.0949
-0.1024
-0.1098
-0.1168
-0.1233
-0.1289
-0.1336
-0.1369
-0.1386
-0.1384
-0.1359
-0.1309
-0.1231
-0.1120
-0.0975
-0.0793
-0.0571