# vtk DataFile Version 1.0
2D Sin graph datase
ASCII

DATASET STRUCTURED_POINTS
DIMENSIONS 201 201 1
ORIGIN 0 0 0
SPACING 0.05 0.05 0.05

POINT_DATA 40401

SCALARS scalars float
LOOKUP_TABLE default
0.0097
0.0242
0.0376
0.0487
0.0567
0.0608
0.0604
0.0553
0.0456
0.0318
0.0145
-0.0053
-0.0263
-0.0472
-0.0665
-0.0830
-0.0953
-0.1023
-0.1031
-0.0969
-0.0835
-0.0629
-0.0353
-0.0014
0.0380
0.0817
0.1286
0.1771
0.2259
0.2734
0.3184
0.3594
0.3955
0.4257
0.4492
0.4657
0.4747
0.4765
0.4710
0.4587
0.4402
0.4162
0.3874
0.3548
0.3192
0.2816
0.2428
0.2037
0.1652
0.1278
0.0922
0.0589
0.0284
0.0009
-0.0234
-0.0443
-0.0619
-0.0761
-0.0872
-0.0952
-0.1004
-0.1031
-0.1034
-0.1018
-0.0983
-0.0934
-0.0873
-0.0803
-0.0726
-0.0644
-0.0558
-0.0472
-0.0386
-0.0301
-0.0219
-0.0141
-0.0066
0.0004
0.0070
0.0130
0.0186
0.0237
0.0282
0.0323
0.0360
0.0392
0.0421
0.0446
0.0468
0.0486
0.0502
0.0516
0.0527
0.0537
0.0545
0.0551
0.0556
0.0559
0.0562
0.0563
0.0564
0.0563
0.0562
0.0559
0.0556
0.0551
0.0545
0.0537
0.0527
0.0516
0.0502
0.0486
0.0468
0.0446
0.0421
0.0392
0.0360
0.0323
0.0282
0.0237
0.0186
0.0130
0.0070
0.0004
-0.0066
-0.0141
-0.0219
-0.0301
-0.0386
-0.0472
-0.0558
-0.0644
-0.0726
-0.0803
-0.0873
-0.0934
-0.0983
-0.1018
-0.1034
-0.1031
-0.1004
-0.0952
-0.0872
-0.0761
-0.0619
-0.0443
-0.0234
0.0009
0.0284
0.0589
0.0922
0.1278
0.1652
0.2037
0.2428
0.2816
0.3192
0.3548
0.3874
0.4162
0.4402
0.4587
0.4710
0.4765
0.4747
0.4657
0.4492
0.4257
0.3955
0.3594
0.3184
0.2734
0.2259
0.1771
0.1286
0.0817
0.0380
-0.0014
-0.0353
-0.0629
-0.0835
-0.0969
-0.1031
-0.1023
-0.0953
-0.0830
-0.0665
-0.0472
-0.0263
-0.0053
0.0145
0.0318
0.0456
0.0553
0.0604
0.0608
0.0567
0.0487
0.0376
0.0242
0.0097
0.0242
0.0377
0.0489
0.0569
0.0609
0.0602
0.0548
0.0447
0.0304
0.0126
-0.0076
-0.0289
-0.0499
-0.0693
-0.0854
-0.0970
-0.1030
-0.1024
-0.0945
-0.0792
-0.0565
-0.0267
0.0094
0.0509
0.0965
0.1449
0.1946
0.2440
0.2916
0.3360
0.3758
0.4101
0.4378
0.4584
0.4714
0.4766
0.4742
0.4644
0.4478
0.4251
0.3970
0.3646
0.3286
0.2902
0.2504
0.2100
0.1699
0.1310
0.0939
0.0593
0.0275
-0.0010
-0.0260
-0.0475
-0.0652
-0.0794
-0.0901
-0.0975
-0.1019
-0.1035
-0.1027
-0.0997
-0.0950
-0.0887
-0.0812
-0.0728
-0.0638
-0.0544
-0.0448
-0.0352
-0.0258
-0.0167
-0.0079
0.0003
0.0080
0.0151
0.0216
0.0275
0.0328
0.0375
0.0416
0.0452
0.0483
0.0510
0.0532
0.0550
0.0565
0.0578
0.0587
0.0595
0.0600
0.0605
0.0607
0.0609
0.0611
0.0611
0.0612
0.0612
0.0612
0.0612
0.0612
0.0612
0.0612
0.0612
0.0612
0.0611
0.0611
0.0609
0.0607
0.0605
0.0600
0.0595
0.0587
0.0578
0.0565
0.0550
0.0532
0.0510
0.0483
0.0452
0.0416
0.0375
0.0328
0.0275
0.0216
0.0151
0.0080
0.0003
-0.0079
-0.0167
-0.0258
-0.0352
-0.0448
-0.0544
-0.0638
-0.0728
-0.0812
-0.0887
-0.0950
-0.0997
-0.1027
-0.1035
-0.1019
-0.0975
-0.0901
-0.0794
-0.0652
-0.0475
-0.0260
-0.0010
0.0275
0.0593
0.0939
0.1310
0.1699
0.2100
0.2504
0.2902
0.3286
0.3646
0.3970
0.4251
0.4478
0.4644
0.4742
0.4766
0.4714
0.4584
0.4378
0.4101
0.3758
0.3360
0.2916
0.2440
0.1946
0.1449
0.0965
0.0509
0.0094
-0.0267
-0.0565
-0.0792
-0.0945
-0.1024
-0.1030
-0.0970
-0.0854
-0.0693
-0.0499
-0.0289
-0.0076
0.0126
0.0304
0.0447
0.0548
0.0602
0.0609
0.0569
0.0489
0.0377
0.0242
0.0376
0.0489
0.0570
0.0609
0.0601
0.0545
0.0440
0.0293
0.0111
-0.0095
-0.0311
-0.0523
-0.0715
-0.0873
-0.0983
-0.1033
-0.1015
-0.0921
-0.0751
-0.0504
-0.0186
0.0196
0.0630
0.1103
0.1601
0.2107
0.2606
0.3081
0.3518
0.3903
0.4226
0.4479
0.4654
0.4749
0.4763
0.4698
0.4560
0.4353
0.4086
0.3768
0.3410
0.3022
0.2615
0.2199
0.1784
0.1379
0.0991
0.0629
0.0296
-0.0002
-0.0263
-0.0485
-0.0668
-0.0812
-0.0918
-0.0989
-0.1027
-0.1035
-0.1017
-0.0977
-0.0917
-0.0842
-0.0755
-0.0660
-0.0558
-0.0454
-0.0349
-0.0246
-0.0145
-0.0049
0.0041
0.0125
0.0202
0.0271
0.0334
0.0388
0.0436
0.0477
0.0511
0.0539
0.0562
0.0580
0.0593
0.0602
0.0608
0.0611
0.0612
0.0611
0.0608
0.0604
0.0599
0.0594
0.0589
0.0584
0.0579
0.0575
0.0571
0.0568
0.0565
0.0564
0.0563
0.0564
0.0565
0.0568
0.0571
0.0575
0.0579
0.0584
0.0589
0.0594
0.0599
0.0604
0.0608
0.0611
0.0612
0.0611
0.0608
0.0602
0.0593
0.0580
0.0562
0.0539
0.0511
0.0477
0.0436
0.0388
0.0334
0.0271
0.0202
0.0125
0.0041
-0.0049
-0.0145
-0.0246
-0.0349
-0.0454
-0.0558
-0.0660
-0.0755
-0.0842
-0.0917
-0.0977
-0.1017
-0.1035
-0.1027
-0.0989
-0.0918
-0.0812
-0.0668
-0.0485
-0.0263
-0.0002
0.0296
0.0629
0.0991
0.1379
0.1784
0.2199
0.2615
0.3022
0.3410
0.3768
0.4086
0.4353
0.4560
0.4698
0.4763
0.4749
0.4654
0.4479
0.4226
0.3903
0.3518
0.3081
0.2606
0.2107
0.1601
0.1103
0.0630
0.0196
-0.0186
-0.0504
-0.0751
-0.0921
-0.1015
-0.1033
-0.0983
-0.0873
-0.0715
-0.0523
-0.0311
-0.0095
0.0111
0.0293
0.0440
0.0545
0.0601
0.0609
0.0570
0.0489
0.0376
0.0487
0.0569
0.0609
0.0601
0.0543
0.0436
0.0286
0.0100
-0.0109
-0.0328
-0.0541
-0.0733
-0.0889
-0.0993
-0.1035
-0.1005
-0.0898
-0.0711
-0.0447
-0.0110
0.0291
0.0742
0.1231
0.1741
0.2255
0.2757
0.3230
0.3658
0.4030
0.4333
0.4559
0.4704
0.4765
0.4742
0.4639
0.4460
0.4215
0.3911
0.3560
0.3172
0.2760
0.2334
0.1905
0.1484
0.1079
0.0698
0.0348
0.0034
-0.0241
-0.0475
-0.0666
-0.0816
-0.0924
-0.0995
-0.1030
-0.1033
-0.1008
-0.0959
-0.0890
-0.0804
-0.0707
-0.0601
-0.0490
-0.0377
-0.0264
-0.0154
-0.0049
0.0050
0.0141
0.0225
0.0300
0.0366
0.0424
0.0473
0.0513
0.0546
0.0571
0.0590
0.0602
0.0609
0.0612
0.0610
0.0606
0.0598
0.0588
0.0577
0.0564
0.0550
0.0537
0.0523
0.0509
0.0497
0.0484
0.0473
0.0463
0.0455
0.0448
0.0442
0.0438
0.0435
0.0435
0.0435
0.0438
0.0442
0.0448
0.0455
0.0463
0.0473
0.0484
0.0497
0.0509
0.0523
0.0537
0.0550
0.0564
0.0577
0.0588
0.0598
0.0606
0.0610
0.0612
0.0609
0.0602
0.0590
0.0571
0.0546
0.0513
0.0473
0.0424
0.0366
0.0300
0.0225
0.0141
0.0050
-0.0049
-0.0154
-0.0264
-0.0377
-0.0490
-0.0601
-0.0707
-0.0804
-0.0890
-0.0959
-0.1008
-0.1033
-0.1030
-0.0995
-0.0924
-0.0816
-0.0666
-0.0475
-0.0241
0.0034
0.0348
0.0698
0.1079
0.1484
0.1905
0.2334
0.2760
0.3172
0.3560
0.3911
0.4215
0.4460
0.4639
0.4742
0.4765
0.4704
0.4559
0.4333
0.4030
0.3658
0.3230
0.2757
0.2255
0.1741
0.1231
0.0742
0.0291
-0.0110
-0.0447
-0.0711
-0.0898
-0.1005
-0.1035
-0.0993
-0.0889
-0.0733
-0.0541
-0.0328
-0.0109
0.0100
0.0286
0.0436
0.0543
0.0601
0.0609
0.0569
0.0487
0.0567
0.0609
0.0601
0.0543
0.0435
0.0282
0.0094
-0.0118
-0.0340
-0.0555
-0.0747
-0.0900
-0.1001
-0.1036
-0.0996
-0.0876
-0.0675
-0.0394
-0.0040
0.0377
0.0845
0.1347
0.1868
0.2389
0.2893
0.3363
0.3782
0.4139
0.4422
0.4623
0.4738
0.4766
0.4707
0.4566
0.4351
0.4069
0.3732
0.3350
0.2937
0.2504
0.2063
0.1626
0.1203
0.0802
0.0432
0.0099
-0.0194
-0.0443
-0.0647
-0.0806
-0.0922
-0.0996
-0.1031
-0.1032
-0.1002
-0.0947
-0.0869
-0.0775
-0.0669
-0.0554
-0.0434
-0.0314
-0.0195
-0.0079
0.0029
0.0130
0.0222
0.0305
0.0377
0.0439
0.0490
0.0532
0.0564
0.0587
0.0602
0.0610
0.0612
0.0608
0.0598
0.0585
0.0569
0.0550
0.0529
0.0507
0.0484
0.0460
0.0437
0.0414
0.0392
0.0371
0.0352
0.0333
0.0317
0.0302
0.0289
0.0278
0.0268
0.0261
0.0256
0.0253
0.0252
0.0253
0.0256
0.0261
0.0268
0.0278
0.0289
0.0302
0.0317
0.0333
0.0352
0.0371
0.0392
0.0414
0.0437
0.0460
0.0484
0.0507
0.0529
0.0550
0.0569
0.0585
0.0598
0.0608
0.0612
0.0610
0.0602
0.0587
0.0564
0.0532
0.0490
0.0439
0.0377
0.0305
0.0222
0.0130
0.0029
-0.0079
-0.0195
-0.0314
-0.0434
-0.0554
-0.0669
-0.0775
-0.0869
-0.0947
-0.1002
-0.1032
-0.1031
-0.0996
-0.0922
-0.0806
-0.0647
-0.0443
-0.0194
0.0099
0.0432
0.0802
0.1203
0.1626
0.2063
0.2504
0.2937
0.3350
0.3732
0.4069
0.4351
0.4566
0.4707
0.4766
0.4738
0.4623
0.4422
0.4139
0.3782
0.3363
0.2893
0.2389
0.1868
0.1347
0.0845
0.0377
-0.0040
-0.0394
-0.0675
-0.0876
-0.0996
-0.1036
-0.1001
-0.0900
-0.0747
-0.0555
-0.0340
-0.0118
0.0094
0.0282
0.0435
0.0543
0.0601
0.0609
0.0567
0.0608
0.0602
0.0545
0.0436
0.0282
0.0092
-0.0123
-0.0347
-0.0564
-0.0757
-0.0909
-0.1006
-0.1035
-0.0987
-0.0857
-0.0642
-0.0347
0.0022
0.0455
0.0937
0.1452
0.1983
0.2510
0.3015
0.3480
0.3891
0.4233
0.4495
0.4672
0.4758
0.4753
0.4660
0.4485
0.4234
0.3919
0.3551
0.3143
0.2707
0.2257
0.1806
0.1364
0.0943
0.0551
0.0195
-0.0120
-0.0388
-0.0610
-0.0783
-0.0909
-0.0990
-0.1030
-0.1032
-0.1001
-0.0941
-0.0859
-0.0758
-0.0644
-0.0521
-0.0394
-0.0266
-0.0141
-0.0021
0.0091
0.0194
0.0286
0.0366
0.0435
0.0492
0.0537
0.0571
0.0594
0.0607
0.0612
0.0609
0.0599
0.0583
0.0562
0.0537
0.0509
0.0479
0.0448
0.0415
0.0382
0.0350
0.0318
0.0287
0.0257
0.0229
0.0202
0.0178
0.0155
0.0135
0.0116
0.0100
0.0086
0.0074
0.0064
0.0056
0.0051
0.0048
0.0047
0.0048
0.0051
0.0056
0.0064
0.0074
0.0086
0.0100
0.0116
0.0135
0.0155
0.0178
0.0202
0.0229
0.0257
0.0287
0.0318
0.0350
0.0382
0.0415
0.0448
0.0479
0.0509
0.0537
0.0562
0.0583
0.0599
0.0609
0.0612
0.0607
0.0594
0.0571
0.0537
0.0492
0.0435
0.0366
0.0286
0.0194
0.0091
-0.0021
-0.0141
-0.0266
-0.0394
-0.0521
-0.0644
-0.0758
-0.0859
-0.0941
-0.1001
-0.1032
-0.1030
-0.0990
-0.0909
-0.0783
-0.0610
-0.0388
-0.0120
0.0195
0.0551
0.0943
0.1364
0.1806
0.2257
0.2707
0.3143
0.3551
0.3919
0.4234
0.4485
0.4660
0.4753
0.4758
0.4672
0.4495
0.4233
0.3891
0.3480
0.3015
0.2510
0.1983
0.1452
0.0937
0.0455
0.0022
-0.0347
-0.0642
-0.0857
-0.0987
-0.1035
-0.1006
-0.0909
-0.0757
-0.0564
-0.0347
-0.0123
0.0092
0.0282
0.0436
0.0545
0.0602
0.0608
0.0604
0.0548
0.0440
0.0286
0.0094
-0.0123
-0.0349
-0.0568
-0.0762
-0.0915
-0.1010
-0.1034
-0.0980
-0.0840
-0.0615
-0.0307
0.0076
0.0523
0.1018
0.1545
0.2084
0.2616
0.3121
0.3583
0.3984
0.4312
0.4555
0.4708
0.4766
0.4731
0.4606
0.4397
0.4114
0.3768
0.3372
0.2940
0.2486
0.2023
0.1564
0.1121
0.0705
0.0324
-0.0016
-0.0308
-0.0551
-0.0743
-0.0885
-0.0979
-0.1027
-0.1034
-0.1004
-0.0944
-0.0858
-0.0752
-0.0631
-0.0502
-0.0368
-0.0233
-0.0102
0.0022
0.0137
0.0242
0.0334
0.0412
0.0478
0.0529
0.0568
0.0594
0.0608
0.0612
0.0606
0.0592
0.0571
0.0543
0.0511
0.0476
0.0437
0.0397
0.0355
0.0314
0.0272
0.0232
0.0193
0.0155
0.0119
0.0086
0.0054
0.0025
-0.0002
-0.0026
-0.0048
-0.0068
-0.0085
-0.0101
-0.0114
-0.0124
-0.0133
-0.0140
-0.0145
-0.0148
-0.0149
-0.0148
-0.0145
-0.0140
-0.0133
-0.0124
-0.0114
-0.0101
-0.0085
-0.0068
-0.0048
-0.0026
-0.0002
0.0025
0.0054
0.0086
0.0119
0.0155
0.0193
0.0232
0.0272
0.0314
0.0355
0.0397
0.0437
0.0476
0.0511
0.0543
0.0571
0.0592
0.0606
0.0612
0.0608
0.0594
0.0568
0.0529
0.0478
0.0412
0.0334
0.0242
0.0137
0.0022
-0.0102
-0.0233
-0.0368
-0.0502
-0.0631
-0.0752
-0.0858
-0.0944
-0.1004
-0.1034
-0.1027
-0.0979
-0.0885
-0.0743
-0.0551
-0.0308
-0.0016
0.0324
0.0705
0.1121
0.1564
0.2023
0.2486
0.2940
0.3372
0.3768
0.4114
0.4397
0.4606
0.4731
0.4766
0.4708
0.4555
0.4312
0.3984
0.3583
0.3121
0.2616
0.2084
0.1545
0.1018
0.0523
0.0076
-0.0307
-0.0615
-0.0840
-0.0980
-0.1034
-0.1010
-0.0915
-0.0762
-0.0568
-0.0349
-0.0123
0.0094
0.0286
0.0440
0.0548
0.0604
0.0553
0.0447
0.0293
0.0100
-0.0118
-0.0347
-0.0568
-0.0764
-0.0917
-0.1012
-0.1034
-0.0974
-0.0828
-0.0593
-0.0274
0.0121
0.0580
0.1087
0.1624
0.2171
0.2708
0.3214
0.3672
0.4065
0.4378
0.4603
0.4733
0.4766
0.4702
0.4546
0.4306
0.3993
0.3619
0.3199
0.2746
0.2275
0.1802
0.1339
0.0898
0.0489
0.0122
-0.0199
-0.0468
-0.0685
-0.0847
-0.0958
-0.1019
-0.1035
-0.1011
-0.0953
-0.0867
-0.0758
-0.0633
-0.0497
-0.0357
-0.0216
-0.0079
0.0050
0.0169
0.0275
0.0367
0.0445
0.0507
0.0555
0.0587
0.0606
0.0612
0.0606
0.0591
0.0566
0.0534
0.0497
0.0454
0.0408
0.0360
0.0311
0.0261
0.0212
0.0164
0.0117
0.0073
0.0030
-0.0009
-0.0046
-0.0080
-0.0112
-0.0140
-0.0166
-0.0189
-0.0210
-0.0228
-0.0244
-0.0258
-0.0270
-0.0280
-0.0288
-0.0295
-0.0300
-0.0303
-0.0305
-0.0306
-0.0305
-0.0303
-0.0300
-0.0295
-0.0288
-0.0280
-0.0270
-0.0258
-0.0244
-0.0228
-0.0210
-0.0189
-0.0166
-0.0140
-0.0112
-0.0080
-0.0046
-0.0009
0.0030
0.0073
0.0117
0.0164
0.0212
0.0261
0.0311
0.0360
0.0408
0.0454
0.0497
0.0534
0.0566
0.0591
0.0606
0.0612
0.0606
0.0587
0.0555
0.0507
0.0445
0.0367
0.0275
0.0169
0.0050
-0.0079
-0.0216
-0.0357
-0.0497
-0.0633
-0.0758
-0.0867
-0.0953
-0.1011
-0.1035
-0.1019
-0.0958
-0.0847
-0.0685
-0.0468
-0.0199
0.0122
0.0489
0.0898
0.1339
0.1802
0.2275
0.2746
0.3199
0.3619
0.3993
0.4306
0.4546
0.4702
0.4766
0.4733
0.4603
0.4378
0.4065
0.3672
0.3214
0.2708
0.2171
0.1624
0.1087
0.0580
0.0121
-0.0274
-0.0593
-0.0828
-0.0974
-0.1034
-0.1012
-0.0917
-0.0764
-0.0568
-0.0347
-0.0118
0.0100
0.0293
0.0447
0.0553
0.0456
0.0304
0.0111
-0.0109
-0.0340
-0.0564
-0.0762
-0.0917
-0.1012
-0.1033
-0.0971
-0.0819
-0.0577
-0.0248
0.0157
0.0627
0.1144
0.1691
0.2245
0.2786
0.3294
0.3748
0.4132
0.4433
0.4641
0.4750
0.4758
0.4667
0.4483
0.4215
0.3874
0.3475
0.3032
0.2561
0.2078
0.1597
0.1132
0.0695
0.0296
-0.0056
-0.0357
-0.0602
-0.0791
-0.0924
-0.1004
-0.1035
-0.1021
-0.0969
-0.0885
-0.0775
-0.0648
-0.0508
-0.0361
-0.0215
-0.0072
0.0063
0.0186
0.0295
0.0389
0.0467
0.0527
0.0571
0.0599
0.0611
0.0609
0.0595
0.0571
0.0537
0.0495
0.0448
0.0396
0.0341
0.0285
0.0228
0.0171
0.0116
0.0063
0.0012
-0.0036
-0.0080
-0.0121
-0.0159
-0.0194
-0.0224
-0.0252
-0.0277
-0.0298
-0.0317
-0.0334
-0.0348
-0.0360
-0.0370
-0.0378
-0.0385
-0.0391
-0.0396
-0.0399
-0.0402
-0.0404
-0.0405
-0.0405
-0.0405
-0.0404
-0.0402
-0.0399
-0.0396
-0.0391
-0.0385
-0.0378
-0.0370
-0.0360
-0.0348
-0.0334
-0.0317
-0.0298
-0.0277
-0.0252
-0.0224
-0.0194
-0.0159
-0.0121
-0.0080
-0.0036
0.0012
0.0063
0.0116
0.0171
0.0228
0.0285
0.0341
0.0396
0.0448
0.0495
0.0537
0.0571
0.0595
0.0609
0.0611
0.0599
0.0571
0.0527
0.0467
0.0389
0.0295
0.0186
0.0063
-0.0072
-0.0215
-0.0361
-0.0508
-0.0648
-0.0775
-0.0885
-0.0969
-0.1021
-0.1035
-0.1004
-0.0924
-0.0791
-0.0602
-0.0357
-0.0056
0.0296
0.0695
0.1132
0.1597
0.2078
0.2561
0.3032
0.3475
0.3874
0.4215
0.4483
0.4667
0.4758
0.4750
0.4641
0.4433
0.4132
0.3748
0.3294
0.2786
0.2245
0.1691
0.1144
0.0627
0.0157
-0.0248
-0.0577
-0.0819
-0.0971
-0.1033
-0.1012
-0.0917
-0.0762
-0.0564
-0.0340
-0.0109
0.0111
0.0304
0.0456
0.0318
0.0126
-0.0095
-0.0328
-0.0555
-0.0757
-0.0915
-0.1012
-0.1033
-0.0970
-0.0814
-0.0567
-0.0231
0.0183
0.0662
0.1189
0.1744
0.2306
0.2851
0.3360
0.3811
0.4189
0.4479
0.4671
0.4760
0.4746
0.4630
0.4420
0.4125
0.3760
0.3337
0.2875
0.2388
0.1894
0.1407
0.0943
0.0512
0.0125
-0.0211
-0.0491
-0.0712
-0.0874
-0.0979
-0.1029
-0.1031
-0.0989
-0.0911
-0.0804
-0.0676
-0.0532
-0.0381
-0.0229
-0.0079
0.0061
0.0190
0.0304
0.0400
0.0479
0.0539
0.0581
0.0605
0.0612
0.0604
0.0583
0.0550
0.0507
0.0457
0.0401
0.0341
0.0279
0.0215
0.0152
0.0090
0.0030
-0.0026
-0.0079
-0.0128
-0.0173
-0.0214
-0.0251
-0.0283
-0.0311
-0.0335
-0.0356
-0.0374
-0.0388
-0.0400
-0.0410
-0.0417
-0.0423
-0.0427
-0.0431
-0.0433
-0.0434
-0.0435
-0.0435
-0.0435
-0.0435
-0.0435
-0.0435
-0.0435
-0.0435
-0.0435
-0.0435
-0.0435
-0.0435
-0.0435
-0.0434
-0.0433
-0.0431
-0.0427
-0.0423
-0.0417
-0.0410
-0.0400
-0.0388
-0.0374
-0.0356
-0.0335
-0.0311
-0.0283
-0.0251
-0.0214
-0.0173
-0.0128
-0.0079
-0.0026
0.0030
0.0090
0.0152
0.0215
0.0279
0.0341
0.0401
0.0457
0.0507
0.0550
0.0583
0.0604
0.0612
0.0605
0.0581
0.0539
0.0479
0.0400
0.0304
0.0190
0.0061
-0.0079
-0.0229
-0.0381
-0.0532
-0.0676
-0.0804
-0.0911
-0.0989
-0.1031
-0.1029
-0.0979
-0.0874
-0.0712
-0.0491
-0.0211
0.0125
0.0512
0.0943
0.1407
0.1894
0.2388
0.2875
0.3337
0.3760
0.4125
0.4420
0.4630
0.4746
0.4760
0.4671
0.4479
0.4189
0.3811
0.3360
0.2851
0.2306
0.1744
0.1189
0.0662
0.0183
-0.0231
-0.0567
-0.0814
-0.0970
-0.1033
-0.1012
-0.0915
-0.0757
-0.0555
-0.0328
-0.0095
0.0126
0.0318
0.0145
-0.0076
-0.0311
-0.0541
-0.0747
-0.0909
-0.1010
-0.1034
-0.0971
-0.0814
-0.0564
-0.0223
0.0198
0.0686
0.1221
0.1784
0.2353
0.2903
0.3413
0.3863
0.4235
0.4515
0.4693
0.4766
0.4731
0.4592
0.4358
0.4040
0.3651
0.3208
0.2728
0.2228
0.1725
0.1235
0.0772
0.0348
-0.0026
-0.0345
-0.0604
-0.0801
-0.0936
-0.1013
-0.1036
-0.1010
-0.0943
-0.0842
-0.0716
-0.0571
-0.0416
-0.0258
-0.0102
0.0045
0.0181
0.0300
0.0401
0.0483
0.0545
0.0586
0.0608
0.0611
0.0598
0.0571
0.0531
0.0482
0.0424
0.0360
0.0293
0.0224
0.0154
0.0086
0.0020
-0.0043
-0.0102
-0.0155
-0.0204
-0.0248
-0.0287
-0.0320
-0.0348
-0.0372
-0.0391
-0.0406
-0.0418
-0.0426
-0.0431
-0.0434
-0.0435
-0.0435
-0.0433
-0.0430
-0.0426
-0.0422
-0.0418
-0.0414
-0.0410
-0.0406
-0.0403
-0.0400
-0.0398
-0.0397
-0.0397
-0.0397
-0.0398
-0.0400
-0.0403
-0.0406
-0.0410
-0.0414
-0.0418
-0.0422
-0.0426
-0.0430
-0.0433
-0.0435
-0.0435
-0.0434
-0.0431
-0.0426
-0.0418
-0.0406
-0.0391
-0.0372
-0.0348
-0.0320
-0.0287
-0.0248
-0.0204
-0.0155
-0.0102
-0.0043
0.0020
0.0086
0.0154
0.0224
0.0293
0.0360
0.0424
0.0482
0.0531
0.0571
0.0598
0.0611
0.0608
0.0586
0.0545
0.0483
0.0401
0.0300
0.0181
0.0045
-0.0102
-0.0258
-0.0416
-0.0571
-0.0716
-0.0842
-0.0943
-0.1010
-0.1036
-0.1013
-0.0936
-0.0801
-0.0604
-0.0345
-0.0026
0.0348
0.0772
0.1235
0.1725
0.2228
0.2728
0.3208
0.3651
0.4040
0.4358
0.4592
0.4731
0.4766
0.4693
0.4515
0.4235
0.3863
0.3413
0.2903
0.2353
0.1784
0.1221
0.0686
0.0198
-0.0223
-0.0564
-0.0814
-0.0971
-0.1034
-0.1010
-0.0909
-0.0747
-0.0541
-0.0311
-0.0076
0.0145
-0.0053
-0.0289
-0.0523
-0.0733
-0.0900
-0.1006
-0.1034
-0.0974
-0.0819
-0.0567
-0.0223
0.0203
0.0697
0.1241
0.1811
0.2386
0.2941
0.3454
0.3903
0.4271
0.4543
0.4710
0.4767
0.4714
0.4555
0.4300
0.3960
0.3551
0.3089
0.2593
0.2081
0.1571
0.1079
0.0619
0.0203
-0.0158
-0.0460
-0.0698
-0.0871
-0.0981
-0.1031
-0.1027
-0.0977
-0.0887
-0.0766
-0.0623
-0.0466
-0.0303
-0.0141
0.0015
0.0158
0.0285
0.0392
0.0479
0.0544
0.0587
0.0609
0.0610
0.0594
0.0562
0.0517
0.0461
0.0397
0.0327
0.0253
0.0178
0.0103
0.0030
-0.0039
-0.0104
-0.0163
-0.0217
-0.0264
-0.0305
-0.0340
-0.0369
-0.0392
-0.0410
-0.0422
-0.0431
-0.0435
-0.0435
-0.0433
-0.0428
-0.0421
-0.0413
-0.0403
-0.0393
-0.0382
-0.0371
-0.0361
-0.0350
-0.0341
-0.0332
-0.0324
-0.0317
-0.0311
-0.0307
-0.0303
-0.0301
-0.0301
-0.0301
-0.0303
-0.0307
-0.0311
-0.0317
-0.0324
-0.0332
-0.0341
-0.0350
-0.0361
-0.0371
-0.0382
-0.0393
-0.0403
-0.0413
-0.0421
-0.0428
-0.0433
-0.0435
-0.0435
-0.0431
-0.0422
-0.0410
-0.0392
-0.0369
-0.0340
-0.0305
-0.0264
-0.0217
-0.0163
-0.0104
-0.0039
0.0030
0.0103
0.0178
0.0253
0.0327
0.0397
0.0461
0.0517
0.0562
0.0594
0.0610
0.0609
0.0587
0.0544
0.0479
0.0392
0.0285
0.0158
0.0015
-0.0141
-0.0303
-0.0466
-0.0623
-0.0766
-0.0887
-0.0977
-0.1027
-0.1031
-0.0981
-0.0871
-0.0698
-0.0460
-0.0158
0.0203
0.0619
0.1079
0.1571
0.2081
0.2593
0.3089
0.3551
0.3960
0.4300
0.4555
0.4714
0.4767
0.4710
0.4543
0.4271
0.3903
0.3454
0.2941
0.2386
0.1811
0.1241
0.0697
0.0203
-0.0223
-0.0567
-0.0819
-0.0974
-0.1034
-0.1006
-0.0900
-0.0733
-0.0523
-0.0289
-0.0053
-0.0263
-0.0499
-0.0715
-0.0889
-0.1001
-0.1035
-0.0980
-0.0828
-0.0577
-0.0231
0.0198
0.0697
0.1247
0.1825
0.2406
0.2967
0.3483
0.3933
0.4298
0.4565
0.4722
0.4766
0.4698
0.4521
0.4247
0.3888
0.3460
0.2981
0.2471
0.1949
0.1433
0.0939
0.0483
0.0076
-0.0273
-0.0557
-0.0774
-0.0924
-0.1010
-0.1036
-0.1008
-0.0934
-0.0824
-0.0686
-0.0529
-0.0363
-0.0195
-0.0031
0.0121
0.0257
0.0373
0.0467
0.0537
0.0584
0.0608
0.0610
0.0593
0.0558
0.0509
0.0448
0.0378
0.0302
0.0222
0.0142
0.0063
-0.0013
-0.0085
-0.0152
-0.0211
-0.0264
-0.0310
-0.0348
-0.0378
-0.0402
-0.0419
-0.0429
-0.0435
-0.0435
-0.0431
-0.0423
-0.0412
-0.0399
-0.0384
-0.0367
-0.0349
-0.0331
-0.0313
-0.0295
-0.0278
-0.0261
-0.0245
-0.0231
-0.0217
-0.0205
-0.0195
-0.0186
-0.0178
-0.0172
-0.0168
-0.0166
-0.0165
-0.0166
-0.0168
-0.0172
-0.0178
-0.0186
-0.0195
-0.0205
-0.0217
-0.0231
-0.0245
-0.0261
-0.0278
-0.0295
-0.0313
-0.0331
-0.0349
-0.0367
-0.0384
-0.0399
-0.0412
-0.0423
-0.0431
-0.0435
-0.0435
-0.0429
-0.0419
-0.0402
-0.0378
-0.0348
-0.0310
-0.0264
-0.0211
-0.0152
-0.0085
-0.0013
0.0063
0.0142
0.0222
0.0302
0.0378
0.0448
0.0509
0.0558
0.0593
0.0610
0.0608
0.0584
0.0537
0.0467
0.0373
0.0257
0.0121
-0.0031
-0.0195
-0.0363
-0.0529
-0.0686
-0.0824
-0.0934
-0.1008
-0.1036
-0.1010
-0.0924
-0.0774
-0.0557
-0.0273
0.0076
0.0483
0.0939
0.1433
0.1949
0.2471
0.2981
0.3460
0.3888
0.4247
0.4521
0.4698
0.4766
0.4722
0.4565
0.4298
0.3933
0.3483
0.2967
0.2406
0.1825
0.1247
0.0697
0.0198
-0.0231
-0.0577
-0.0828
-0.0980
-0.1035
-0.1001
-0.0889
-0.0715
-0.0499
-0.0263
-0.0472
-0.0693
-0.0873
-0.0993
-0.1036
-0.0987
-0.0840
-0.0593
-0.0248
0.0183
0.0686
0.1241
0.1825
0.2413
0.2980
0.3500
0.3953
0.4318
0.4580
0.4731
0.4765
0.4683
0.4491
0.4200
0.3823
0.3379
0.2885
0.2363
0.1831
0.1310
0.0816
0.0364
-0.0035
-0.0370
-0.0638
-0.0836
-0.0965
-0.1027
-0.1030
-0.0980
-0.0886
-0.0758
-0.0605
-0.0438
-0.0264
-0.0093
0.0068
0.0215
0.0341
0.0445
0.0524
0.0578
0.0606
0.0611
0.0594
0.0559
0.0507
0.0442
0.0368
0.0287
0.0202
0.0117
0.0034
-0.0046
-0.0120
-0.0188
-0.0248
-0.0300
-0.0343
-0.0377
-0.0403
-0.0421
-0.0432
-0.0435
-0.0433
-0.0425
-0.0412
-0.0396
-0.0377
-0.0355
-0.0331
-0.0307
-0.0281
-0.0256
-0.0231
-0.0206
-0.0182
-0.0160
-0.0139
-0.0119
-0.0100
-0.0084
-0.0069
-0.0056
-0.0044
-0.0035
-0.0027
-0.0020
-0.0016
-0.0013
-0.0013
-0.0013
-0.0016
-0.0020
-0.0027
-0.0035
-0.0044
-0.0056
-0.0069
-0.0084
-0.0100
-0.0119
-0.0139
-0.0160
-0.0182
-0.0206
-0.0231
-0.0256
-0.0281
-0.0307
-0.0331
-0.0355
-0.0377
-0.0396
-0.0412
-0.0425
-0.0433
-0.0435
-0.0432
-0.0421
-0.0403
-0.0377
-0.0343
-0.0300
-0.0248
-0.0188
-0.0120
-0.0046
0.0034
0.0117
0.0202
0.0287
0.0368
0.0442
0.0507
0.0559
0.0594
0.0611
0.0606
0.0578
0.0524
0.0445
0.0341
0.0215
0.0068
-0.0093
-0.0264
-0.0438
-0.0605
-0.0758
-0.0886
-0.0980
-0.1030
-0.1027
-0.0965
-0.0836
-0.0638
-0.0370
-0.0035
0.0364
0.0816
0.1310
0.1831
0.2363
0.2885
0.3379
0.3823
0.4200
0.4491
0.4683
0.4765
0.4731
0.4580
0.4318
0.3953
0.3500
0.2980
0.2413
0.1825
0.1241
0.0686
0.0183
-0.0248
-0.0593
-0.0840
-0.0987
-0.1036
-0.0993
-0.0873
-0.0693
-0.0472
-0.0665
-0.0854
-0.0983
-0.1035
-0.0996
-0.0857
-0.0615
-0.0274
0.0157
0.0662
0.1221
0.1811
0.2406
0.2980
0.3506
0.3963
0.4329
0.4590
0.4736
0.4762
0.4670
0.4465
0.4160
0.3768
0.3309
0.2802
0.2268
0.1729
0.1203
0.0708
0.0260
-0.0130
-0.0454
-0.0706
-0.0885
-0.0993
-0.1035
-0.1016
-0.0946
-0.0834
-0.0690
-0.0525
-0.0349
-0.0171
-0.0000
0.0158
0.0297
0.0412
0.0502
0.0565
0.0602
0.0612
0.0598
0.0564
0.0511
0.0444
0.0367
0.0282
0.0193
0.0103
0.0015
-0.0068
-0.0145
-0.0214
-0.0274
-0.0325
-0.0366
-0.0397
-0.0419
-0.0431
-0.0435
-0.0432
-0.0422
-0.0406
-0.0385
-0.0361
-0.0333
-0.0303
-0.0272
-0.0240
-0.0208
-0.0176
-0.0145
-0.0114
-0.0086
-0.0058
-0.0033
-0.0009
0.0013
0.0033
0.0051
0.0067
0.0081
0.0093
0.0104
0.0113
0.0120
0.0125
0.0129
0.0131
0.0132
0.0131
0.0129
0.0125
0.0120
0.0113
0.0104
0.0093
0.0081
0.0067
0.0051
0.0033
0.0013
-0.0009
-0.0033
-0.0058
-0.0086
-0.0114
-0.0145
-0.0176
-0.0208
-0.0240
-0.0272
-0.0303
-0.0333
-0.0361
-0.0385
-0.0406
-0.0422
-0.0432
-0.0435
-0.0431
-0.0419
-0.0397
-0.0366
-0.0325
-0.0274
-0.0214
-0.0145
-0.0068
0.0015
0.0103
0.0193
0.0282
0.0367
0.0444
0.0511
0.0564
0.0598
0.0612
0.0602
0.0565
0.0502
0.0412
0.0297
0.0158
-0.0000
-0.0171
-0.0349
-0.0525
-0.0690
-0.0834
-0.0946
-0.1016
-0.1035
-0.0993
-0.0885
-0.0706
-0.0454
-0.0130
0.0260
0.0708
0.1203
0.1729
0.2268
0.2802
0.3309
0.3768
0.4160
0.4465
0.4670
0.4762
0.4736
0.4590
0.4329
0.3963
0.3506
0.2980
0.2406
0.1811
0.1221
0.0662
0.0157
-0.0274
-0.0615
-0.0857
-0.0996
-0.1035
-0.0983
-0.0854
-0.0665
-0.0830
-0.0970
-0.1033
-0.1005
-0.0876
-0.0642
-0.0307
0.0121
0.0627
0.1189
0.1784
0.2386
0.2967
0.3500
0.3963
0.4333
0.4595
0.4739
0.4761
0.4660
0.4445
0.4128
0.3723
0.3251
0.2732
0.2188
0.1641
0.1111
0.0616
0.0171
-0.0211
-0.0524
-0.0761
-0.0924
-0.1013
-0.1035
-0.0997
-0.0908
-0.0780
-0.0623
-0.0448
-0.0266
-0.0086
0.0084
0.0237
0.0366
0.0470
0.0546
0.0593
0.0611
0.0604
0.0573
0.0522
0.0455
0.0375
0.0287
0.0194
0.0100
0.0008
-0.0079
-0.0159
-0.0230
-0.0292
-0.0342
-0.0382
-0.0410
-0.0427
-0.0435
-0.0433
-0.0423
-0.0406
-0.0383
-0.0354
-0.0322
-0.0287
-0.0250
-0.0212
-0.0173
-0.0135
-0.0098
-0.0062
-0.0027
0.0005
0.0035
0.0063
0.0089
0.0113
0.0134
0.0153
0.0170
0.0185
0.0198
0.0209
0.0219
0.0227
0.0234
0.0239
0.0243
0.0246
0.0248
0.0248
0.0248
0.0246
0.0243
0.0239
0.0234
0.0227
0.0219
0.0209
0.0198
0.0185
0.0170
0.0153
0.0134
0.0113
0.0089
0.0063
0.0035
0.0005
-0.0027
-0.0062
-0.0098
-0.0135
-0.0173
-0.0212
-0.0250
-0.0287
-0.0322
-0.0354
-0.0383
-0.0406
-0.0423
-0.0433
-0.0435
-0.0427
-0.0410
-0.0382
-0.0342
-0.0292
-0.0230
-0.0159
-0.0079
0.0008
0.0100
0.0194
0.0287
0.0375
0.0455
0.0522
0.0573
0.0604
0.0611
0.0593
0.0546
0.0470
0.0366
0.0237
0.0084
-0.0086
-0.0266
-0.0448
-0.0623
-0.0780
-0.0908
-0.0997
-0.1035
-0.1013
-0.0924
-0.0761
-0.0524
-0.0211
0.0171
0.0616
0.1111
0.1641
0.2188
0.2732
0.3251
0.3723
0.4128
0.4445
0.4660
0.4761
0.4739
0.4595
0.4333
0.3963
0.3500
0.2967
0.2386
0.1784
0.1189
0.0627
0.0121
-0.0307
-0.0642
-0.0876
-0.1005
-0.1033
-0.0970
-0.0830
-0.0953
-0.1030
-0.1015
-0.0898
-0.0675
-0.0347
0.0076
0.0580
0.1144
0.1744
0.2353
0.2941
0.3483
0.3953
0.4329
0.4595
0.4740
0.4760
0.4654
0.4432
0.4105
0.3689
0.3205
0.2675
0.2122
0.1567
0.1033
0.0538
0.0096
-0.0280
-0.0582
-0.0806
-0.0953
-0.1025
-0.1030
-0.0974
-0.0869
-0.0727
-0.0558
-0.0375
-0.0188
-0.0007
0.0159
0.0305
0.0425
0.0516
0.0577
0.0607
0.0609
0.0585
0.0538
0.0473
0.0392
0.0302
0.0206
0.0107
0.0011
-0.0080
-0.0164
-0.0238
-0.0301
-0.0352
-0.0391
-0.0417
-0.0432
-0.0435
-0.0428
-0.0412
-0.0389
-0.0359
-0.0323
-0.0284
-0.0242
-0.0199
-0.0155
-0.0111
-0.0068
-0.0027
0.0013
0.0050
0.0084
0.0116
0.0145
0.0171
0.0194
0.0214
0.0232
0.0248
0.0262
0.0273
0.0283
0.0291
0.0298
0.0304
0.0308
0.0312
0.0315
0.0317
0.0318
0.0319
0.0319
0.0319
0.0318
0.0317
0.0315
0.0312
0.0308
0.0304
0.0298
0.0291
0.0283
0.0273
0.0262
0.0248
0.0232
0.0214
0.0194
0.0171
0.0145
0.0116
0.0084
0.0050
0.0013
-0.0027
-0.0068
-0.0111
-0.0155
-0.0199
-0.0242
-0.0284
-0.0323
-0.0359
-0.0389
-0.0412
-0.0428
-0.0435
-0.0432
-0.0417
-0.0391
-0.0352
-0.0301
-0.0238
-0.0164
-0.0080
0.0011
0.0107
0.0206
0.0302
0.0392
0.0473
0.0538
0.0585
0.0609
0.0607
0.0577
0.0516
0.0425
0.0305
0.0159
-0.0007
-0.0188
-0.0375
-0.0558
-0.0727
-0.0869
-0.0974
-0.1030
-0.1025
-0.0953
-0.0806
-0.0582
-0.0280
0.0096
0.0538
0.1033
0.1567
0.2122
0.2675
0.3205
0.3689
0.4105
0.4432
0.4654
0.4760
0.4740
0.4595
0.4329
0.3953
0.3483
0.2941
0.2353
0.1744
0.1144
0.0580
0.0076
-0.0347
-0.0675
-0.0898
-0.1015
-0.1030
-0.0953
-0.1023
-0.1024
-0.0921
-0.0711
-0.0394
0.0022
0.0523
0.1087
0.1691
0.2306
0.2903
0.3454
0.3933
0.4318
0.4590
0.4739
0.4760
0.4652
0.4425
0.4090
0.3666
0.3172
0.2633
0.2070
0.1509
0.0970
0.0474
0.0034
-0.0336
-0.0629
-0.0842
-0.0975
-0.1032
-0.1021
-0.0950
-0.0831
-0.0676
-0.0497
-0.0307
-0.0118
0.0063
0.0225
0.0363
0.0473
0.0551
0.0597
0.0612
0.0598
0.0558
0.0497
0.0418
0.0327
0.0228
0.0126
0.0025
-0.0071
-0.0159
-0.0237
-0.0303
-0.0356
-0.0396
-0.0421
-0.0434
-0.0434
-0.0423
-0.0402
-0.0373
-0.0337
-0.0295
-0.0250
-0.0202
-0.0153
-0.0104
-0.0056
-0.0009
0.0035
0.0077
0.0115
0.0150
0.0181
0.0209
0.0234
0.0255
0.0273
0.0288
0.0300
0.0311
0.0319
0.0325
0.0330
0.0333
0.0335
0.0337
0.0338
0.0338
0.0338
0.0338
0.0338
0.0337
0.0337
0.0337
0.0337
0.0337
0.0338
0.0338
0.0338
0.0338
0.0338
0.0337
0.0335
0.0333
0.0330
0.0325
0.0319
0.0311