# vtk DataFile Version 1.0
2D Sin graph datase
ASCII

DATASET STRUCTURED_POINTS
DIMENSIONS 201 201 1
ORIGIN 0 0 0
SPACING 0.05 0.05 0.05

POINT_DATA 40401

SCALARS scalars float
LOOKUP_TABLE default
0.0001
-0.0123
-0.0243
-0.0348
-0.0430
-0.0483
-0.0500
-0.0481
-0.0424
-0.0332
-0.0212
-0.0070
0.0084
0.0240
0.0387
0.0516
0.0616
0.0681
0.0703
0.0681
0.0613
0.0502
0.0351
0.0169
-0.0037
-0.0255
-0.0474
-0.0683
-0.0868
-0.1020
-0.1128
-0.1184
-0.1181
-0.1116
-0.0986
-0.0792
-0.0537
-0.0224
0.0138
0.0543
0.0981
0.1442
0.1916
0.2391
0.2858
0.3308
0.3730
0.4118
0.4465
0.4765
0.5015
0.5212
0.5354
0.5443
0.5477
0.5461
0.5397
0.5288
0.5139
0.4955
0.4739
0.4499
0.4237
0.3960
0.3671
0.3376
0.3077
0.2780
0.2486
0.2199
0.1921
0.1654
0.1399
0.1158
0.0932
0.0720
0.0524
0.0343
0.0176
0.0025
-0.0113
-0.0237
-0.0349
-0.0449
-0.0538
-0.0616
-0.0685
-0.0745
-0.0798
-0.0843
-0.0883
-0.0916
-0.0944
-0.0968
-0.0987
-0.1003
-0.1015
-0.1025
-0.1031
-0.1035
-0.1036
-0.1035
-0.1031
-0.1025
-0.1015
-0.1003
-0.0987
-0.0968
-0.0944
-0.0916
-0.0883
-0.0843
-0.0798
-0.0745
-0.0685
-0.0616
-0.0538
-0.0449
-0.0349
-0.0237
-0.0113
0.0025
0.0176
0.0343
0.0524
0.0720
0.0932
0.1158
0.1399
0.1654
0.1921
0.2199
0.2486
0.2780
0.3077
0.3376
0.3671
0.3960
0.4237
0.4499
0.4739
0.4955
0.5139
0.5288
0.5397
0.5461
0.5477
0.5443
0.5354
0.5212
0.5015
0.4765
0.4465
0.4118
0.3730
0.3308
0.2858
0.2391
0.1916
0.1442
0.0981
0.0543
0.0138
-0.0224
-0.0537
-0.0792
-0.0986
-0.1116
-0.1181
-0.1184
-0.1128
-0.1020
-0.0868
-0.0683
-0.0474
-0.0255
-0.0037
0.0169
0.0351
0.0502
0.0613
0.0681
0.0703
0.0681
0.0616
0.0516
0.0387
0.0240
0.0084
-0.0070
-0.0212
-0.0332
-0.0424
-0.0481
-0.0500
-0.0483
-0.0430
-0.0348
-0.0243
-0.0123
0.0001
-0.0123
-0.0244
-0.0350
-0.0432
-0.0484
-0.0500
-0.0478
-0.0418
-0.0323
-0.0199
-0.0053
0.0103
0.0261
0.0408
0.0534
0.0630
0.0688
0.0702
0.0670
0.0590
0.0467
0.0305
0.0112
-0.0102
-0.0326
-0.0547
-0.0752
-0.0930
-0.1068
-0.1158
-0.1190
-0.1159
-0.1062
-0.0897
-0.0665
-0.0372
-0.0022
0.0377
0.0814
0.1280
0.1764
0.2254
0.2739
0.3208
0.3651
0.4059
0.4424
0.4741
0.5004
0.5210
0.5358
0.5447
0.5478
0.5454
0.5377
0.5252
0.5083
0.4876
0.4636
0.4369
0.4081
0.3776
0.3460
0.3139
0.2816
0.2495
0.2181
0.1876
0.1582
0.1302
0.1038
0.0790
0.0559
0.0346
0.0151
-0.0027
-0.0187
-0.0331
-0.0460
-0.0574
-0.0673
-0.0760
-0.0836
-0.0900
-0.0955
-0.1002
-0.1040
-0.1072
-0.1098
-0.1119
-0.1136
-0.1149
-0.1160
-0.1167
-0.1173
-0.1177
-0.1180
-0.1183
-0.1184
-0.1185
-0.1185
-0.1185
-0.1184
-0.1183
-0.1180
-0.1177
-0.1173
-0.1167
-0.1160
-0.1149
-0.1136
-0.1119
-0.1098
-0.1072
-0.1040
-0.1002
-0.0955
-0.0900
-0.0836
-0.0760
-0.0673
-0.0574
-0.0460
-0.0331
-0.0187
-0.0027
0.0151
0.0346
0.0559
0.0790
0.1038
0.1302
0.1582
0.1876
0.2181
0.2495
0.2816
0.3139
0.3460
0.3776
0.4081
0.4369
0.4636
0.4876
0.5083
0.5252
0.5377
0.5454
0.5478
0.5447
0.5358
0.5210
0.5004
0.4741
0.4424
0.4059
0.3651
0.3208
0.2739
0.2254
0.1764
0.1280
0.0814
0.0377
-0.0022
-0.0372
-0.0665
-0.0897
-0.1062
-0.1159
-0.1190
-0.1158
-0.1068
-0.0930
-0.0752
-0.0547
-0.0326
-0.0102
0.0112
0.0305
0.0467
0.0590
0.0670
0.0702
0.0688
0.0630
0.0534
0.0408
0.0261
0.0103
-0.0053
-0.0199
-0.0323
-0.0418
-0.0478
-0.0500
-0.0484
-0.0432
-0.0350
-0.0244
-0.0123
-0.0243
-0.0350
-0.0433
-0.0485
-0.0500
-0.0476
-0.0414
-0.0316
-0.0188
-0.0040
0.0119
0.0278
0.0425
0.0550
0.0642
0.0694
0.0700
0.0658
0.0568
0.0433
0.0261
0.0058
-0.0163
-0.0391
-0.0612
-0.0813
-0.0982
-0.1107
-0.1177
-0.1186
-0.1126
-0.0997
-0.0797
-0.0530
-0.0200
0.0185
0.0616
0.1083
0.1574
0.2076
0.2578
0.3067
0.3532
0.3963
0.4351
0.4688
0.4970
0.5191
0.5350
0.5445
0.5478
0.5451
0.5367
0.5230
0.5046
0.4820
0.4559
0.4269
0.3956
0.3626
0.3286
0.2941
0.2595
0.2254
0.1921
0.1600
0.1294
0.1004
0.0733
0.0481
0.0249
0.0038
-0.0152
-0.0322
-0.0474
-0.0606
-0.0721
-0.0820
-0.0904
-0.0974
-0.1031
-0.1078
-0.1114
-0.1142
-0.1162
-0.1176
-0.1185
-0.1189
-0.1190
-0.1188
-0.1184
-0.1178
-0.1172
-0.1165
-0.1159
-0.1153
-0.1147
-0.1143
-0.1140
-0.1138
-0.1137
-0.1138
-0.1140
-0.1143
-0.1147
-0.1153
-0.1159
-0.1165
-0.1172
-0.1178
-0.1184
-0.1188
-0.1190
-0.1189
-0.1185
-0.1176
-0.1162
-0.1142
-0.1114
-0.1078
-0.1031
-0.0974
-0.0904
-0.0820
-0.0721
-0.0606
-0.0474
-0.0322
-0.0152
0.0038
0.0249
0.0481
0.0733
0.1004
0.1294
0.1600
0.1921
0.2254
0.2595
0.2941
0.3286
0.3626
0.3956
0.4269
0.4559
0.4820
0.5046
0.5230
0.5367
0.5451
0.5478
0.5445
0.5350
0.5191
0.4970
0.4688
0.4351
0.3963
0.3532
0.3067
0.2578
0.2076
0.1574
0.1083
0.0616
0.0185
-0.0200
-0.0530
-0.0797
-0.0997
-0.1126
-0.1186
-0.1177
-0.1107
-0.0982
-0.0813
-0.0612
-0.0391
-0.0163
0.0058
0.0261
0.0433
0.0568
0.0658
0.0700
0.0694
0.0642
0.0550
0.0425
0.0278
0.0119
-0.0040
-0.0188
-0.0316
-0.0414
-0.0476
-0.0500
-0.0485
-0.0433
-0.0350
-0.0243
-0.0348
-0.0432
-0.0485
-0.0500
-0.0475
-0.0411
-0.0311
-0.0181
-0.0030
0.0132
0.0292
0.0439
0.0562
0.0651
0.0698
0.0697
0.0646
0.0547
0.0402
0.0220
0.0009
-0.0218
-0.0449
-0.0670
-0.0867
-0.1026
-0.1136
-0.1187
-0.1172
-0.1085
-0.0924
-0.0691
-0.0389
-0.0025
0.0393
0.0854
0.1347
0.1858
0.2374
0.2883
0.3371
0.3827
0.4242
0.4605
0.4910
0.5152
0.5328
0.5436
0.5478
0.5454
0.5368
0.5225
0.5030
0.4790
0.4512
0.4201
0.3867
0.3515
0.3152
0.2784
0.2418
0.2058
0.1708
0.1373
0.1055
0.0757
0.0481
0.0227
-0.0003
-0.0209
-0.0393
-0.0553
-0.0692
-0.0810
-0.0909
-0.0990
-0.1055
-0.1105
-0.1142
-0.1167
-0.1183
-0.1189
-0.1189
-0.1182
-0.1171
-0.1156
-0.1138
-0.1118
-0.1097
-0.1075
-0.1054
-0.1033
-0.1013
-0.0995
-0.0979
-0.0964
-0.0953
-0.0943
-0.0936
-0.0932
-0.0931
-0.0932
-0.0936
-0.0943
-0.0953
-0.0964
-0.0979
-0.0995
-0.1013
-0.1033
-0.1054
-0.1075
-0.1097
-0.1118
-0.1138
-0.1156
-0.1171
-0.1182
-0.1189
-0.1189
-0.1183
-0.1167
-0.1142
-0.1105
-0.1055
-0.0990
-0.0909
-0.0810
-0.0692
-0.0553
-0.0393
-0.0209
-0.0003
0.0227
0.0481
0.0757
0.1055
0.1373
0.1708
0.2058
0.2418
0.2784
0.3152
0.3515
0.3867
0.4201
0.4512
0.4790
0.5030
0.5225
0.5368
0.5454
0.5478
0.5436
0.5328
0.5152
0.4910
0.4605
0.4242
0.3827
0.3371
0.2883
0.2374
0.1858
0.1347
0.0854
0.0393
-0.0025
-0.0389
-0.0691
-0.0924
-0.1085
-0.1172
-0.1187
-0.1136
-0.1026
-0.0867
-0.0670
-0.0449
-0.0218
0.0009
0.0220
0.0402
0.0547
0.0646
0.0697
0.0698
0.0651
0.0562
0.0439
0.0292
0.0132
-0.0030
-0.0181
-0.0311
-0.0411
-0.0475
-0.0500
-0.0485
-0.0432
-0.0348
-0.0430
-0.0484
-0.0500
-0.0475
-0.0410
-0.0308
-0.0176
-0.0023
0.0141
0.0302
0.0450
0.0572
0.0658
0.0700
0.0693
0.0635
0.0527
0.0373
0.0182
-0.0036
-0.0268
-0.0502
-0.0722
-0.0913
-0.1063
-0.1158
-0.1190
-0.1151
-0.1036
-0.0846
-0.0580
-0.0246
0.0151
0.0599
0.1087
0.1602
0.2130
0.2656
0.3168
0.3651
0.4094
0.4487
0.4821
0.5091
0.5290
0.5419
0.5475
0.5461
0.5380
0.5237
0.5037
0.4787
0.4495
0.4169
0.3816
0.3444
0.3060
0.2672
0.2286
0.1907
0.1542
0.1193
0.0865
0.0559
0.0279
0.0025
-0.0203
-0.0404
-0.0579
-0.0728
-0.0853
-0.0955
-0.1036
-0.1098
-0.1143
-0.1172
-0.1187
-0.1190
-0.1183
-0.1167
-0.1145
-0.1117
-0.1085
-0.1049
-0.1012
-0.0974
-0.0935
-0.0897
-0.0859
-0.0824
-0.0790
-0.0759
-0.0730
-0.0704
-0.0682
-0.0662
-0.0646
-0.0634
-0.0625
-0.0619
-0.0618
-0.0619
-0.0625
-0.0634
-0.0646
-0.0662
-0.0682
-0.0704
-0.0730
-0.0759
-0.0790
-0.0824
-0.0859
-0.0897
-0.0935
-0.0974
-0.1012
-0.1049
-0.1085
-0.1117
-0.1145
-0.1167
-0.1183
-0.1190
-0.1187
-0.1172
-0.1143
-0.1098
-0.1036
-0.0955
-0.0853
-0.0728
-0.0579
-0.0404
-0.0203
0.0025
0.0279
0.0559
0.0865
0.1193
0.1542
0.1907
0.2286
0.2672
0.3060
0.3444
0.3816
0.4169
0.4495
0.4787
0.5037
0.5237
0.5380
0.5461
0.5475
0.5419
0.5290
0.5091
0.4821
0.4487
0.4094
0.3651
0.3168
0.2656
0.2130
0.1602
0.1087
0.0599
0.0151
-0.0246
-0.0580
-0.0846
-0.1036
-0.1151
-0.1190
-0.1158
-0.1063
-0.0913
-0.0722
-0.0502
-0.0268
-0.0036
0.0182
0.0373
0.0527
0.0635
0.0693
0.0700
0.0658
0.0572
0.0450
0.0302
0.0141
-0.0023
-0.0176
-0.0308
-0.0410
-0.0475
-0.0500
-0.0484
-0.0430
-0.0483
-0.0500
-0.0476
-0.0411
-0.0308
-0.0174
-0.0019
0.0146
0.0309
0.0458
0.0579
0.0663
0.0701
0.0689
0.0625
0.0509
0.0348
0.0149
-0.0075
-0.0313
-0.0548
-0.0766
-0.0952
-0.1092
-0.1173
-0.1186
-0.1124
-0.0984
-0.0764
-0.0468
-0.0103
0.0324
0.0799
0.1312
0.1846
0.2387
0.2920
0.3430
0.3905
0.4331
0.4699
0.5002
0.5232
0.5388
0.5467
0.5471
0.5402
0.5265
0.5066
0.4812
0.4512
0.4173
0.3804
0.3414
0.3011
0.2604
0.2199
0.1803
0.1422
0.1059
0.0720
0.0407
0.0123
-0.0133
-0.0358
-0.0553
-0.0719
-0.0857
-0.0968
-0.1054
-0.1117
-0.1159
-0.1183
-0.1190
-0.1183
-0.1164
-0.1135
-0.1097
-0.1054
-0.1005
-0.0953
-0.0898
-0.0843
-0.0787
-0.0732
-0.0678
-0.0627
-0.0577
-0.0531
-0.0488
-0.0448
-0.0412
-0.0379
-0.0350
-0.0325
-0.0304
-0.0286
-0.0273
-0.0263
-0.0257
-0.0255
-0.0257
-0.0263
-0.0273
-0.0286
-0.0304
-0.0325
-0.0350
-0.0379
-0.0412
-0.0448
-0.0488
-0.0531
-0.0577
-0.0627
-0.0678
-0.0732
-0.0787
-0.0843
-0.0898
-0.0953
-0.1005
-0.1054
-0.1097
-0.1135
-0.1164
-0.1183
-0.1190
-0.1183
-0.1159
-0.1117
-0.1054
-0.0968
-0.0857
-0.0719
-0.0553
-0.0358
-0.0133
0.0123
0.0407
0.0720
0.1059
0.1422
0.1803
0.2199
0.2604
0.3011
0.3414
0.3804
0.4173
0.4512
0.4812
0.5066
0.5265
0.5402
0.5471
0.5467
0.5388
0.5232
0.5002
0.4699
0.4331
0.3905
0.3430
0.2920
0.2387
0.1846
0.1312
0.0799
0.0324
-0.0103
-0.0468
-0.0764
-0.0984
-0.1124
-0.1186
-0.1173
-0.1092
-0.0952
-0.0766
-0.0548
-0.0313
-0.0075
0.0149
0.0348
0.0509
0.0625
0.0689
0.0701
0.0663
0.0579
0.0458
0.0309
0.0146
-0.0019
-0.0174
-0.0308
-0.0411
-0.0476
-0.0500
-0.0483
-0.0500
-0.0478
-0.0414
-0.0311
-0.0176
-0.0019
0.0148
0.0313
0.0462
0.0583
0.0666
0.0702
0.0686
0.0616
0.0494
0.0326
0.0121
-0.0110
-0.0351
-0.0588
-0.0805
-0.0985
-0.1115
-0.1183
-0.1178
-0.1094
-0.0928
-0.0681
-0.0357
0.0037
0.0491
0.0992
0.1526
0.2076
0.2627
0.3164
0.3670
0.4132
0.4539
0.4880
0.5148
0.5338
0.5448
0.5478
0.5429
0.5306
0.5115
0.4863
0.4559
0.4212
0.3831
0.3427
0.3007
0.2581
0.2158
0.1744
0.1346
0.0970
0.0619
0.0298
0.0007
-0.0250
-0.0474
-0.0664
-0.0822
-0.0949
-0.1046
-0.1117
-0.1162
-0.1186
-0.1189
-0.1176
-0.1147
-0.1107
-0.1057
-0.0999
-0.0935
-0.0867
-0.0797
-0.0725
-0.0653
-0.0583
-0.0514
-0.0448
-0.0385
-0.0325
-0.0269
-0.0216
-0.0168
-0.0124
-0.0084
-0.0048
-0.0017
0.0011
0.0035
0.0055
0.0071
0.0084
0.0093
0.0098
0.0100
0.0098
0.0093
0.0084
0.0071
0.0055
0.0035
0.0011
-0.0017
-0.0048
-0.0084
-0.0124
-0.0168
-0.0216
-0.0269
-0.0325
-0.0385
-0.0448
-0.0514
-0.0583
-0.0653
-0.0725
-0.0797
-0.0867
-0.0935
-0.0999
-0.1057
-0.1107
-0.1147
-0.1176
-0.1189
-0.1186
-0.1162
-0.1117
-0.1046
-0.0949
-0.0822
-0.0664
-0.0474
-0.0250
0.0007
0.0298
0.0619
0.0970
0.1346
0.1744
0.2158
0.2581
0.3007
0.3427
0.3831
0.4212
0.4559
0.4863
0.5115
0.5306
0.5429
0.5478
0.5448
0.5338
0.5148
0.4880
0.4539
0.4132
0.3670
0.3164
0.2627
0.2076
0.1526
0.0992
0.0491
0.0037
-0.0357
-0.0681
-0.0928
-0.1094
-0.1178
-0.1183
-0.1115
-0.0985
-0.0805
-0.0588
-0.0351
-0.0110
0.0121
0.0326
0.0494
0.0616
0.0686
0.0702
0.0666
0.0583
0.0462
0.0313
0.0148
-0.0019
-0.0176
-0.0311
-0.0414
-0.0478
-0.0500
-0.0481
-0.0418
-0.0316
-0.0181
-0.0023
0.0146
0.0313
0.0464
0.0586
0.0668
0.0703
0.0683
0.0609
0.0482
0.0308
0.0097
-0.0138
-0.0383
-0.0622
-0.0837
-0.1012
-0.1134
-0.1188
-0.1166
-0.1062
-0.0872
-0.0600
-0.0248
0.0173
0.0652
0.1175
0.1728
0.2291
0.2850
0.3387
0.3886
0.4334
0.4719
0.5031
0.5263
0.5412
0.5475
0.5455
0.5355
0.5180
0.4937
0.4636
0.4287
0.3898
0.3481
0.3047
0.2604
0.2163
0.1731
0.1316
0.0923
0.0559
0.0227
-0.0070
-0.0331
-0.0556
-0.0743
-0.0895
-0.1013
-0.1098
-0.1154
-0.1184
-0.1189
-0.1174
-0.1141
-0.1093
-0.1033
-0.0963
-0.0886
-0.0805
-0.0720
-0.0634
-0.0548
-0.0463
-0.0381
-0.0302
-0.0226
-0.0155
-0.0088
-0.0026
0.0031
0.0084
0.0131
0.0175
0.0213
0.0248
0.0278
0.0305
0.0327
0.0347
0.0363
0.0376
0.0386
0.0393
0.0397
0.0398
0.0397
0.0393
0.0386
0.0376
0.0363
0.0347
0.0327
0.0305
0.0278
0.0248
0.0213
0.0175
0.0131
0.0084
0.0031
-0.0026
-0.0088
-0.0155
-0.0226
-0.0302
-0.0381
-0.0463
-0.0548
-0.0634
-0.0720
-0.0805
-0.0886
-0.0963
-0.1033
-0.1093
-0.1141
-0.1174
-0.1189
-0.1184
-0.1154
-0.1098
-0.1013
-0.0895
-0.0743
-0.0556
-0.0331
-0.0070
0.0227
0.0559
0.0923
0.1316
0.1731
0.2163
0.2604
0.3047
0.3481
0.3898
0.4287
0.4636
0.4937
0.5180
0.5355
0.5455
0.5475
0.5412
0.5263
0.5031
0.4719
0.4334
0.3886
0.3387
0.2850
0.2291
0.1728
0.1175
0.0652
0.0173
-0.0248
-0.0600
-0.0872
-0.1062
-0.1166
-0.1188
-0.1134
-0.1012
-0.0837
-0.0622
-0.0383
-0.0138
0.0097
0.0308
0.0482
0.0609
0.0683
0.0703
0.0668
0.0586
0.0464
0.0313
0.0146
-0.0023
-0.0181
-0.0316
-0.0418
-0.0481
-0.0424
-0.0323
-0.0188
-0.0030
0.0141
0.0309
0.0462
0.0586
0.0669
0.0703
0.0682
0.0604
0.0473
0.0294
0.0078
-0.0162
-0.0410
-0.0650
-0.0863
-0.1034
-0.1147
-0.1190
-0.1152
-0.1029
-0.0818
-0.0521
-0.0145
0.0301
0.0803
0.1347
0.1916
0.2491
0.3054
0.3590
0.4080
0.4512
0.4873
0.5154
0.5350
0.5456
0.5474
0.5406
0.5255
0.5030
0.4739
0.4393
0.4002
0.3577
0.3130
0.2672
0.2213
0.1762
0.1329
0.0919
0.0540
0.0195
-0.0113
-0.0381
-0.0609
-0.0796
-0.0944
-0.1055
-0.1131
-0.1175
-0.1190
-0.1180
-0.1147
-0.1097
-0.1031
-0.0953
-0.0865
-0.0772
-0.0675
-0.0576
-0.0476
-0.0379
-0.0284
-0.0193
-0.0107
-0.0026
0.0049
0.0119
0.0183
0.0241
0.0294
0.0341
0.0383
0.0420
0.0452
0.0481
0.0505
0.0527
0.0544
0.0560
0.0572
0.0582
0.0590
0.0596
0.0601
0.0603
0.0604
0.0603
0.0601
0.0596
0.0590
0.0582
0.0572
0.0560
0.0544
0.0527
0.0505
0.0481
0.0452
0.0420
0.0383
0.0341
0.0294
0.0241
0.0183
0.0119
0.0049
-0.0026
-0.0107
-0.0193
-0.0284
-0.0379
-0.0476
-0.0576
-0.0675
-0.0772
-0.0865
-0.0953
-0.1031
-0.1097
-0.1147
-0.1180
-0.1190
-0.1175
-0.1131
-0.1055
-0.0944
-0.0796
-0.0609
-0.0381
-0.0113
0.0195
0.0540
0.0919
0.1329
0.1762
0.2213
0.2672
0.3130
0.3577
0.4002
0.4393
0.4739
0.5030
0.5255
0.5406
0.5474
0.5456
0.5350
0.5154
0.4873
0.4512
0.4080
0.3590
0.3054
0.2491
0.1916
0.1347
0.0803
0.0301
-0.0145
-0.0521
-0.0818
-0.1029
-0.1152
-0.1190
-0.1147
-0.1034
-0.0863
-0.0650
-0.0410
-0.0162
0.0078
0.0294
0.0473
0.0604
0.0682
0.0703
0.0669
0.0586
0.0462
0.0309
0.0141
-0.0030
-0.0188
-0.0323
-0.0424
-0.0332
-0.0199
-0.0040
0.0132
0.0302
0.0458
0.0583
0.0668
0.0703
0.0681
0.0602
0.0468
0.0285
0.0065
-0.0179
-0.0430
-0.0672
-0.0884
-0.1052
-0.1158
-0.1190
-0.1138
-0.0997
-0.0766
-0.0447
-0.0048
0.0420
0.0944
0.1506
0.2089
0.2673
0.3240
0.3772
0.4252
0.4665
0.5002
0.5252
0.5411
0.5476
0.5449
0.5333
0.5135
0.4863
0.4528
0.4140
0.3712
0.3256
0.2784
0.2309
0.1839
0.1386
0.0957
0.0559
0.0198
-0.0123
-0.0401
-0.0635
-0.0826
-0.0974
-0.1081
-0.1150
-0.1185
-0.1188
-0.1164
-0.1117
-0.1050
-0.0968
-0.0874
-0.0772
-0.0664
-0.0553
-0.0442
-0.0333
-0.0226
-0.0124
-0.0028
0.0062
0.0145
0.0222
0.0291
0.0353
0.0408
0.0456
0.0499
0.0535
0.0566
0.0593
0.0615
0.0633
0.0649
0.0661
0.0670
0.0678
0.0684
0.0688
0.0692
0.0694
0.0696
0.0697
0.0697
0.0698
0.0697
0.0697
0.0696
0.0694
0.0692
0.0688
0.0684
0.0678
0.0670
0.0661
0.0649
0.0633
0.0615
0.0593
0.0566
0.0535
0.0499
0.0456
0.0408
0.0353
0.0291
0.0222
0.0145
0.0062
-0.0028
-0.0124
-0.0226
-0.0333
-0.0442
-0.0553
-0.0664
-0.0772
-0.0874
-0.0968
-0.1050
-0.1117
-0.1164
-0.1188
-0.1185
-0.1150
-0.1081
-0.0974
-0.0826
-0.0635
-0.0401
-0.0123
0.0198
0.0559
0.0957
0.1386
0.1839
0.2309
0.2784
0.3256
0.3712
0.4140
0.4528
0.4863
0.5135
0.5333
0.5449
0.5476
0.5411
0.5252
0.5002
0.4665
0.4252
0.3772
0.3240
0.2673
0.2089
0.1506
0.0944
0.0420
-0.0048
-0.0447
-0.0766
-0.0997
-0.1138
-0.1190
-0.1158
-0.1052
-0.0884
-0.0672
-0.0430
-0.0179
0.0065
0.0285
0.0468
0.0602
0.0681
0.0703
0.0668
0.0583
0.0458
0.0302
0.0132
-0.0040
-0.0199
-0.0332
-0.0212
-0.0053
0.0119
0.0292
0.0450
0.0579
0.0666
0.0703
0.0682
0.0602
0.0466
0.0281
0.0057
-0.0191
-0.0445
-0.0688
-0.0901
-0.1065
-0.1165
-0.1188
-0.1124
-0.0967
-0.0718
-0.0379
0.0040
0.0529
0.1072
0.1651
0.2246
0.2838
0.3407
0.3934
0.4402
0.4798
0.5109
0.5328
0.5451
0.5475
0.5405
0.5244
0.5000
0.4684
0.4307
0.3882
0.3422
0.2941
0.2450
0.1962
0.1488
0.1038
0.0619
0.0238
-0.0100
-0.0393
-0.0638
-0.0836
-0.0987
-0.1094
-0.1160
-0.1188
-0.1183
-0.1148
-0.1088
-0.1008
-0.0912
-0.0805
-0.0689
-0.0568
-0.0446
-0.0325
-0.0207
-0.0094
0.0013
0.0112
0.0203
0.0286
0.0360
0.0425
0.0482
0.0531
0.0572
0.0606
0.0634
0.0656
0.0673
0.0686
0.0694
0.0700
0.0703
0.0703
0.0702
0.0700
0.0697
0.0694
0.0690
0.0687
0.0684
0.0681
0.0679
0.0678
0.0677
0.0678
0.0679
0.0681
0.0684
0.0687
0.0690
0.0694
0.0697
0.0700
0.0702
0.0703
0.0703
0.0700
0.0694
0.0686
0.0673
0.0656
0.0634
0.0606
0.0572
0.0531
0.0482
0.0425
0.0360
0.0286
0.0203
0.0112
0.0013
-0.0094
-0.0207
-0.0325
-0.0446
-0.0568
-0.0689
-0.0805
-0.0912
-0.1008
-0.1088
-0.1148
-0.1183
-0.1188
-0.1160
-0.1094
-0.0987
-0.0836
-0.0638
-0.0393
-0.0100
0.0238
0.0619
0.1038
0.1488
0.1962
0.2450
0.2941
0.3422
0.3882
0.4307
0.4684
0.5000
0.5244
0.5405
0.5475
0.5451
0.5328
0.5109
0.4798
0.4402
0.3934
0.3407
0.2838
0.2246
0.1651
0.1072
0.0529
0.0040
-0.0379
-0.0718
-0.0967
-0.1124
-0.1188
-0.1165
-0.1065
-0.0901
-0.0688
-0.0445
-0.0191
0.0057
0.0281
0.0466
0.0602
0.0682
0.0703
0.0666
0.0579
0.0450
0.0292
0.0119
-0.0053
-0.0212
-0.0070
0.0103
0.0278
0.0439
0.0572
0.0663
0.0702
0.0683
0.0604
0.0468
0.0281
0.0054
-0.0196
-0.0454
-0.0699
-0.0912
-0.1075
-0.1170
-0.1186
-0.1111
-0.0941
-0.0675
-0.0319
0.0120
0.0627
0.1187
0.1780
0.2387
0.2985
0.3555
0.4076
0.4533
0.4910
0.5196
0.5385
0.5472
0.5457
0.5345
0.5141
0.4855
0.4499
0.4084
0.3626
0.3139
0.2636
0.2131
0.1636
0.1163
0.0720
0.0316
-0.0043
-0.0355
-0.0616
-0.0826
-0.0986
-0.1097
-0.1164
-0.1189
-0.1178
-0.1136
-0.1066
-0.0975
-0.0867
-0.0747
-0.0619
-0.0488
-0.0356
-0.0226
-0.0101
0.0017
0.0126
0.0227
0.0317
0.0397
0.0466
0.0525
0.0575
0.0615
0.0647
0.0670
0.0687
0.0697
0.0703
0.0703
0.0699
0.0693
0.0684
0.0673
0.0661
0.0649
0.0636
0.0623
0.0610
0.0599
0.0589
0.0579
0.0572
0.0565
0.0561
0.0558
0.0557
0.0558
0.0561
0.0565
0.0572
0.0579
0.0589
0.0599
0.0610
0.0623
0.0636
0.0649
0.0661
0.0673
0.0684
0.0693
0.0699
0.0703
0.0703
0.0697
0.0687
0.0670
0.0647
0.0615
0.0575
0.0525
0.0466
0.0397
0.0317
0.0227
0.0126
0.0017
-0.0101
-0.0226
-0.0356
-0.0488
-0.0619
-0.0747
-0.0867
-0.0975
-0.1066
-0.1136
-0.1178
-0.1189
-0.1164
-0.1097
-0.0986
-0.0826
-0.0616
-0.0355
-0.0043
0.0316
0.0720
0.1163
0.1636
0.2131
0.2636
0.3139
0.3626
0.4084
0.4499
0.4855
0.5141
0.5345
0.5457
0.5472
0.5385
0.5196
0.4910
0.4533
0.4076
0.3555
0.2985
0.2387
0.1780
0.1187
0.0627
0.0120
-0.0319
-0.0675
-0.0941
-0.1111
-0.1186
-0.1170
-0.1075
-0.0912
-0.0699
-0.0454
-0.0196
0.0054
0.0281
0.0468
0.0604
0.0683
0.0702
0.0663
0.0572
0.0439
0.0278
0.0103
-0.0070
0.0084
0.0261
0.0425
0.0562
0.0658
0.0701
0.0686
0.0609
0.0473
0.0285
0.0057
-0.0196
-0.0457
-0.0704
-0.0919
-0.1081
-0.1174
-0.1183
-0.1100
-0.0919
-0.0639
-0.0267
0.0188
0.0713
0.1288
0.1895
0.2511
0.3115
0.3685
0.4201
0.4645
0.5004
0.5266
0.5425
0.5478
0.5426
0.5274
0.5030
0.4705
0.4311
0.3863
0.3376
0.2865
0.2345
0.1830
0.1333
0.0865
0.0434
0.0049
-0.0286
-0.0568
-0.0796
-0.0969
-0.1090
-0.1162
-0.1190
-0.1177
-0.1129
-0.1053
-0.0953
-0.0835
-0.0704
-0.0566
-0.0425
-0.0284
-0.0147
-0.0017
0.0105
0.0217
0.0317
0.0405
0.0481
0.0544
0.0596
0.0637
0.0667
0.0687
0.0699
0.0703
0.0701
0.0692
0.0679
0.0663
0.0643
0.0621
0.0598
0.0574
0.0550
0.0526
0.0503
0.0481
0.0460
0.0441
0.0423
0.0408
0.0395
0.0384
0.0375
0.0369
0.0365
0.0364
0.0365
0.0369
0.0375
0.0384
0.0395
0.0408
0.0423
0.0441
0.0460
0.0481
0.0503
0.0526
0.0550
0.0574
0.0598
0.0621
0.0643
0.0663
0.0679
0.0692
0.0701
0.0703
0.0699
0.0687
0.0667
0.0637
0.0596
0.0544
0.0481
0.0405
0.0317
0.0217
0.0105
-0.0017
-0.0147
-0.0284
-0.0425
-0.0566
-0.0704
-0.0835
-0.0953
-0.1053
-0.1129
-0.1177
-0.1190
-0.1162
-0.1090
-0.0969
-0.0796
-0.0568
-0.0286
0.0049
0.0434
0.0865
0.1333
0.1830
0.2345
0.2865
0.3376
0.3863
0.4311
0.4705
0.5030
0.5274
0.5426
0.5478
0.5425
0.5266
0.5004
0.4645
0.4201
0.3685
0.3115
0.2511
0.1895
0.1288
0.0713
0.0188
-0.0267
-0.0639
-0.0919
-0.1100
-0.1183
-0.1174
-0.1081
-0.0919
-0.0704
-0.0457
-0.0196
0.0057
0.0285
0.0473
0.0609
0.0686
0.0701
0.0658
0.0562
0.0425
0.0261
0.0084
0.0240
0.0408
0.0550
0.0651
0.0700
0.0689
0.0616
0.0482
0.0294
0.0065
-0.0191
-0.0454
-0.0704
-0.0921
-0.1084
-0.1175
-0.1181
-0.1092
-0.0901
-0.0610
-0.0224
0.0246
0.0785
0.1375
0.1994
0.2619
0.3228
0.3798
0.4308
0.4741
0.5082
0.5321
0.5452
0.5473
0.5386
0.5196
0.4915
0.4553
0.4125
0.3647
0.3134
0.2604
0.2071
0.1551
0.1055
0.0595
0.0180
-0.0184
-0.0492
-0.0743
-0.0936
-0.1072
-0.1155
-0.1189
-0.1178
-0.1130
-0.1049
-0.0943
-0.0817
-0.0678
-0.0531
-0.0381
-0.0232
-0.0088
0.0048
0.0173
0.0286
0.0386
0.0471
0.0542
0.0600
0.0643
0.0675
0.0694
0.0703
0.0702
0.0693
0.0677
0.0655
0.0628
0.0598
0.0565
0.0531
0.0495
0.0460
0.0424
0.0390
0.0357
0.0325
0.0295
0.0268
0.0243
0.0220
0.0199
0.0182
0.0167
0.0155
0.0145
0.0138
0.0134
0.0133
0.0134
0.0138
0.0145
0.0155
0.0167
0.0182
0.0199
0.0220
0.0243
0.0268
0.0295
0.0325
0.0357
0.0390
0.0424
0.0460
0.0495
0.0531
0.0565
0.0598
0.0628
0.0655
0.0677
0.0693
0.0702
0.0703
0.0694
0.0675
0.0643
0.0600
0.0542
0.0471
0.0386
0.0286
0.0173
0.0048
-0.0088
-0.0232
-0.0381
-0.0531
-0.0678
-0.0817
-0.0943
-0.1049
-0.1130
-0.1178
-0.1189
-0.1155
-0.1072
-0.0936
-0.0743
-0.0492
-0.0184
0.0180
0.0595
0.1055
0.1551
0.2071
0.2604
0.3134
0.3647
0.4125
0.4553
0.4915
0.5196
0.5386
0.5473
0.5452
0.5321
0.5082
0.4741
0.4308
0.3798
0.3228
0.2619
0.1994
0.1375
0.0785
0.0246
-0.0224
-0.0610
-0.0901
-0.1092
-0.1181
-0.1175
-0.1084
-0.0921
-0.0704
-0.0454
-0.0191
0.0065
0.0294
0.0482
0.0616
0.0689
0.0700
0.0651
0.0550
0.0408
0.0240
0.0387
0.0534
0.0642
0.0698
0.0693
0.0625
0.0494
0.0308
0.0078
-0.0179
-0.0445
-0.0699
-0.0919
-0.1084
-0.1176
-0.1180
-0.1086
-0.0889
-0.0589
-0.0192
0.0291
0.0843
0.1446
0.2076
0.2710
0.3324
0.3894
0.4399
0.4821
0.5146
0.5364
0.5468
0.5459
0.5339
0.5115
0.4798
0.4403
0.3944
0.3439
0.2905
0.2359
0.1817
0.1294
0.0802
0.0354
-0.0043
-0.0384
-0.0664
-0.0883
-0.1040
-0.1140
-0.1186
-0.1183
-0.1138
-0.1057
-0.0947
-0.0816
-0.0669
-0.0514
-0.0356
-0.0199
-0.0048
0.0093
0.0222
0.0336
0.0436
0.0519
0.0586
0.0637
0.0673
0.0694
0.0703
0.0700
0.0687
0.0665
0.0636
0.0601
0.0561
0.0518
0.0473
0.0427
0.0380
0.0334
0.0289
0.0245
0.0204
0.0164
0.0127
0.0093
0.0062
0.0033
0.0007
-0.0015
-0.0035
-0.0053
-0.0067
-0.0079
-0.0088
-0.0094
-0.0098
-0.0099
-0.0098
-0.0094
-0.0088
-0.0079
-0.0067
-0.0053
-0.0035
-0.0015
0.0007
0.0033
0.0062
0.0093
0.0127
0.0164
0.0204
0.0245
0.0289
0.0334
0.0380
0.0427
0.0473
0.0518
0.0561
0.0601
0.0636
0.0665
0.0687
0.0700
0.0703
0.0694
0.0673
0.0637
0.0586
0.0519
0.0436
0.0336
0.0222
0.0093
-0.0048
-0.0199
-0.0356
-0.0514
-0.0669
-0.0816
-0.0947
-0.1057
-0.1138
-0.1183
-0.1186
-0.1140
-0.1040
-0.0883
-0.0664
-0.0384
-0.0043
0.0354
0.0802
0.1294
0.1817
0.2359
0.2905
0.3439
0.3944
0.4403
0.4798
0.5115
0.5339
0.5459
0.5468
0.5364
0.5146
0.4821
0.4399
0.3894
0.3324
0.2710
0.2076
0.1446
0.0843
0.0291
-0.0192
-0.0589
-0.0889
-0.1086
-0.1180
-0.1176
-0.1084
-0.0919
-0.0699
-0.0445
-0.0179
0.0078
0.0308
0.0494
0.0625
0.0693
0.0698
0.0642
0.0534
0.0387
0.0516
0.0630
0.0694
0.0697
0.0635
0.0509
0.0326
0.0097
-0.0162
-0.0430
-0.0688
-0.0912
-0.1081
-0.1175
-0.1180
-0.1085
-0.0883
-0.0576
-0.0170
0.0324
0.0888
0.1502
0.2142
0.2784
0.3403
0.3973
0.4475
0.4888
0.5198
0.5396
0.5476
0.5439
0.5288
0.5032
0.4684
0.4258
0.3772
0.3243
0.2690
0.2131
0.1582
0.1059
0.0575
0.0140
-0.0237
-0.0553
-0.0804
-0.0990
-0.1113
-0.1177
-0.1188
-0.1151
-0.1074
-0.0964
-0.0830
-0.0678
-0.0516
-0.0350
-0.0186
-0.0028
0.0119
0.0253
0.0370
0.0470
0.0552
0.0615
0.0661
0.0689
0.0702
0.0701
0.0687
0.0662
0.0628
0.0586
0.0539
0.0487
0.0433
0.0376
0.0320
0.0264
0.0209
0.0156
0.0105
0.0058
0.0013
-0.0029
-0.0067
-0.0102
-0.0134
-0.0162
-0.0187
-0.0210
-0.0229
-0.0246
-0.0260
-0.0272
-0.0282
-0.0289
-0.0294
-0.0297
-0.0298
-0.0297
-0.0294
-0.0289
-0.0282
-0.0272
-0.0260
-0.0246
-0.0229
-0.0210
-0.0187
-0.0162
-0.0134
-0.0102
-0.0067
-0.0029
0.0013
0.0058
0.0105
0.0156
0.0209
0.0264
0.0320
0.0376
0.0433
0.0487
0.0539
0.0586
0.0628
0.0662
0.0687
0.0701
0.0702
0.0689
0.0661
0.0615
0.0552
0.0470
0.0370
0.0253
0.0119
-0.0028
-0.0186
-0.0350
-0.0516
-0.0678
-0.0830
-0.0964
-0.1074
-0.1151
-0.1188
-0.1177
-0.1113
-0.0990
-0.0804
-0.0553
-0.0237
0.0140
0.0575
0.1059
0.1582
0.2131
0.2690
0.3243
0.3772
0.4258
0.4684
0.5032
0.5288
0.5439
0.5476
0.5396
0.5198
0.4888
0.4475
0.3973
0.3403
0.2784
0.2142
0.1502
0.0888
0.0324
-0.0170
-0.0576
-0.0883
-0.1085
-0.1180
-0.1175
-0.1081
-0.0912
-0.0688
-0.0430
-0.0162
0.0097
0.0326
0.0509
0.0635
0.0697
0.0694
0.0630
0.0516
0.0616
0.0688
0.0700
0.0646
0.0527
0.0348
0.0121
-0.0138
-0.0410
-0.0672
-0.0901
-0.1075
-0.1174
-0.1181
-0.1086
-0.0883
-0.0572
-0.0159
0.0343
0.0917
0.1542
0.2192
0.2842
0.3466
0.4038
0.4536
0.4941
0.5239
0.5420
0.5478
0.5415
0.5237
0.4952
0.4575
0.4121
0.3610
0.3060
0.2491
0.1921
0.1368
0.0848
0.0373
-0.0047
-0.0404
-0.0694
-0.0916
-0.1070
-0.1160
-0.1190
-0.1167
-0.1099
-0.0994
-0.0859
-0.0704
-0.0537
-0.0363
-0.0191
-0.0026
0.0128
0.0267
0.0388
0.0490
0.0572
0.0633
0.0675
0.0698
0.0703
0.0693
0.0669
0.0633
0.0588
0.0535
0.0476
0.0414
0.0349
0.0284
0.0218
0.0155
0.0093
0.0034
-0.0021
-0.0072
-0.0120
-0.0163
-0.0203
-0.0238
-0.0270
-0.0298
-0.0323
-0.0344
-0.0363
-0.0379
-0.0392
-0.0403
-0.0413
-0.0420
-0.0426
-0.0431
-0.0434
-0.0435
-0.0436
-0.0435
-0.0434
-0.0431
-0.0426
-0.0420
-0.0413
-0.0403
-0.0392
-0.0379
-0.0363
-0.0344
-0.0323
-0.0298
-0.0270
-0.0238
-0.0203
-0.0163
-0.0120
-0.0072
-0.0021
0.0034
0.0093
0.0155
0.0218
0.0284
0.0349
0.0414
0.0476
0.0535
0.0588
0.0633
0.0669
0.0693
0.0703
0.0698
0.0675
0.0633
0.0572
0.0490
0.0388
0.0267
0.0128
-0.0026
-0.0191
-0.0363
-0.0537
-0.0704
-0.0859
-0.0994
-0.1099
-0.1167
-0.1190
-0.1160
-0.1070
-0.0916
-0.0694
-0.0404
-0.0047
0.0373
0.0848
0.1368
0.1921
0.2491
0.3060
0.3610
0.4121
0.4575
0.4952
0.5237
0.5415
0.5478
0.5420
0.5239
0.4941
0.4536
0.4038
0.3466
0.2842
0.2192
0.1542
0.0917
0.0343
-0.0159
-0.0572
-0.0883
-0.1086
-0.1181
-0.1174
-0.1075
-0.0901
-0.0672
-0.0410
-0.0138
0.0121
0.0348
0.0527
0.0646
0.0700
0.0688
0.0616
0.0681
0.0702
0.0658
0.0547
0.0373
0.0149
-0.0110
-0.0383
-0.0650
-0.0884
-0.1065
-0.1170
-0.1183
-0.1092
-0.0889
-0.0576
-0.0159
0.0350
0.0932
0.1566
0.2225
0.2883
0.3512
0.4087
0.4584
0.4984
0.5271
0.5436
0.5476
0.5391
0.5187
0.4876
0.4473
0.3994
0.3460
0.2892
0.2309
0.1731
0.1176
0.0659
0.0195
-0.0209
-0.0545
-0.0810
-0.1003
-0.1126
-0.1184
-0.1182
-0.1129
-0.1033
-0.0902
-0.0747
-0.0576
-0.0396
-0.0216
-0.0043
0.0119
0.0265
0.0393
0.0499
0.0582
0.0643
0.0683
0.0701
0.0701
0.0683
0.0650
0.0605
0.0550
0.0487
0.0419
0.0347
0.0273
0.0199
0.0127
0.0058
-0.0009
-0.0071
-0.0129
-0.0181
-0.0229
-0.0272
-0.0310
-0.0343
-0.0372
-0.0397
-0.0417
-0.0435
-0.0449
-0.0461
-0.0470
-0.0478
-0.0483
-0.0488
-0.0491
-0.0493
-0.0495
-0.0496
-0.0497
-0.0497
-0.0498
-0.0497
-0.0497
-0.0496
-0.0495
-0.0493
-0.0491
-0.0488
-0.0483
-0.0478
-0.0470
-0.0461
-0.0449
-0.0435
-0.0417