# vtk DataFile Version 1.0
2D Sin graph datase
ASCII

DATASET STRUCTURED_POINTS
DIMENSIONS 201 201 1
ORIGIN 0 0 0
SPACING 0.05 0.05 0.05

POINT_DATA 40401

SCALARS scalars float
LOOKUP_TABLE default
0.0029
0.0121
0.0205
0.0274
0.0324
0.0350
0.0349
0.0323
0.0271
0.0199
0.0110
0.0012
-0.0089
-0.0187
-0.0274
-0.0343
-0.0392
-0.0415
-0.0412
-0.0382
-0.0326
-0.0250
-0.0155
-0.0050
0.0062
0.0172
0.0274
0.0364
0.0435
0.0484
0.0508
0.0505
0.0477
0.0423
0.0347
0.0252
0.0143
0.0025
-0.0097
-0.0218
-0.0332
-0.0434
-0.0520
-0.0587
-0.0633
-0.0655
-0.0653
-0.0627
-0.0578
-0.0509
-0.0421
-0.0318
-0.0203
-0.0080
0.0048
0.0177
0.0303
0.0424
0.0536
0.0636
0.0724
0.0797
0.0853
0.0893
0.0917
0.0923
0.0914
0.0889
0.0850
0.0798
0.0735
0.0662
0.0581
0.0493
0.0400
0.0304
0.0206
0.0106
0.0008
-0.0090
-0.0184
-0.0276
-0.0364
-0.0447
-0.0526
-0.0599
-0.0667
-0.0730
-0.0788
-0.0840
-0.0887
-0.0928
-0.0965
-0.0997
-0.1024
-0.1047
-0.1065
-0.1079
-0.1089
-0.1095
-0.1097
-0.1095
-0.1089
-0.1079
-0.1065
-0.1047
-0.1024
-0.0997
-0.0965
-0.0928
-0.0887
-0.0840
-0.0788
-0.0730
-0.0667
-0.0599
-0.0526
-0.0447
-0.0364
-0.0276
-0.0184
-0.0090
0.0008
0.0106
0.0206
0.0304
0.0400
0.0493
0.0581
0.0662
0.0735
0.0798
0.0850
0.0889
0.0914
0.0923
0.0917
0.0893
0.0853
0.0797
0.0724
0.0636
0.0536
0.0424
0.0303
0.0177
0.0048
-0.0080
-0.0203
-0.0318
-0.0421
-0.0509
-0.0578
-0.0627
-0.0653
-0.0655
-0.0633
-0.0587
-0.0520
-0.0434
-0.0332
-0.0218
-0.0097
0.0025
0.0143
0.0252
0.0347
0.0423
0.0477
0.0505
0.0508
0.0484
0.0435
0.0364
0.0274
0.0172
0.0062
-0.0050
-0.0155
-0.0250
-0.0326
-0.0382
-0.0412
-0.0415
-0.0392
-0.0343
-0.0274
-0.0187
-0.0089
0.0012
0.0110
0.0199
0.0271
0.0323
0.0349
0.0350
0.0324
0.0274
0.0205
0.0121
0.0029
0.0121
0.0205
0.0275
0.0325
0.0350
0.0348
0.0320
0.0266
0.0192
0.0101
0.0001
-0.0102
-0.0200
-0.0285
-0.0353
-0.0398
-0.0417
-0.0408
-0.0371
-0.0310
-0.0227
-0.0128
-0.0018
0.0095
0.0206
0.0306
0.0392
0.0456
0.0497
0.0510
0.0496
0.0455
0.0389
0.0301
0.0196
0.0079
-0.0045
-0.0170
-0.0290
-0.0400
-0.0495
-0.0570
-0.0623
-0.0652
-0.0655
-0.0633
-0.0586
-0.0516
-0.0426
-0.0319
-0.0200
-0.0071
0.0063
0.0198
0.0330
0.0455
0.0570
0.0671
0.0758
0.0827
0.0878
0.0910
0.0923
0.0917
0.0893
0.0852
0.0795
0.0724
0.0641
0.0547
0.0445
0.0337
0.0224
0.0109
-0.0008
-0.0124
-0.0238
-0.0349
-0.0457
-0.0559
-0.0656
-0.0746
-0.0831
-0.0909
-0.0980
-0.1045
-0.1103
-0.1155
-0.1201
-0.1242
-0.1278
-0.1308
-0.1335
-0.1357
-0.1375
-0.1390
-0.1402
-0.1411
-0.1418
-0.1421
-0.1423
-0.1421
-0.1418
-0.1411
-0.1402
-0.1390
-0.1375
-0.1357
-0.1335
-0.1308
-0.1278
-0.1242
-0.1201
-0.1155
-0.1103
-0.1045
-0.0980
-0.0909
-0.0831
-0.0746
-0.0656
-0.0559
-0.0457
-0.0349
-0.0238
-0.0124
-0.0008
0.0109
0.0224
0.0337
0.0445
0.0547
0.0641
0.0724
0.0795
0.0852
0.0893
0.0917
0.0923
0.0910
0.0878
0.0827
0.0758
0.0671
0.0570
0.0455
0.0330
0.0198
0.0063
-0.0071
-0.0200
-0.0319
-0.0426
-0.0516
-0.0586
-0.0633
-0.0655
-0.0652
-0.0623
-0.0570
-0.0495
-0.0400
-0.0290
-0.0170
-0.0045
0.0079
0.0196
0.0301
0.0389
0.0455
0.0496
0.0510
0.0497
0.0456
0.0392
0.0306
0.0206
0.0095
-0.0018
-0.0128
-0.0227
-0.0310
-0.0371
-0.0408
-0.0417
-0.0398
-0.0353
-0.0285
-0.0200
-0.0102
0.0001
0.0101
0.0192
0.0266
0.0320
0.0348
0.0350
0.0325
0.0275
0.0205
0.0121
0.0205
0.0275
0.0325
0.0350
0.0348
0.0318
0.0263
0.0186
0.0093
-0.0009
-0.0112
-0.0210
-0.0295
-0.0361
-0.0402
-0.0417
-0.0403
-0.0361
-0.0294
-0.0206
-0.0102
0.0011
0.0126
0.0236
0.0335
0.0415
0.0473
0.0505
0.0508
0.0483
0.0430
0.0353
0.0254
0.0140
0.0016
-0.0112
-0.0238
-0.0356
-0.0460
-0.0545
-0.0608
-0.0646
-0.0657
-0.0641
-0.0598
-0.0530
-0.0440
-0.0332
-0.0208
-0.0075
0.0065
0.0205
0.0342
0.0472
0.0590
0.0694
0.0780
0.0847
0.0894
0.0919
0.0922
0.0904
0.0866
0.0809
0.0735
0.0646
0.0544
0.0431
0.0310
0.0183
0.0052
-0.0080
-0.0212
-0.0342
-0.0469
-0.0590
-0.0705
-0.0813
-0.0913
-0.1005
-0.1089
-0.1164
-0.1232
-0.1291
-0.1342
-0.1386
-0.1424
-0.1455
-0.1481
-0.1502
-0.1518
-0.1531
-0.1541
-0.1548
-0.1553
-0.1556
-0.1559
-0.1560
-0.1561
-0.1561
-0.1561
-0.1561
-0.1561
-0.1560
-0.1559
-0.1556
-0.1553
-0.1548
-0.1541
-0.1531
-0.1518
-0.1502
-0.1481
-0.1455
-0.1424
-0.1386
-0.1342
-0.1291
-0.1232
-0.1164
-0.1089
-0.1005
-0.0913
-0.0813
-0.0705
-0.0590
-0.0469
-0.0342
-0.0212
-0.0080
0.0052
0.0183
0.0310
0.0431
0.0544
0.0646
0.0735
0.0809
0.0866
0.0904
0.0922
0.0919
0.0894
0.0847
0.0780
0.0694
0.0590
0.0472
0.0342
0.0205
0.0065
-0.0075
-0.0208
-0.0332
-0.0440
-0.0530
-0.0598
-0.0641
-0.0657
-0.0646
-0.0608
-0.0545
-0.0460
-0.0356
-0.0238
-0.0112
0.0016
0.0140
0.0254
0.0353
0.0430
0.0483
0.0508
0.0505
0.0473
0.0415
0.0335
0.0236
0.0126
0.0011
-0.0102
-0.0206
-0.0294
-0.0361
-0.0403
-0.0417
-0.0402
-0.0361
-0.0295
-0.0210
-0.0112
-0.0009
0.0093
0.0186
0.0263
0.0318
0.0348
0.0350
0.0325
0.0275
0.0205
0.0274
0.0325
0.0350
0.0348
0.0317
0.0261
0.0182
0.0088
-0.0015
-0.0120
-0.0218
-0.0303
-0.0367
-0.0406
-0.0417
-0.0398
-0.0352
-0.0279
-0.0186
-0.0079
0.0037
0.0154
0.0263
0.0359
0.0435
0.0486
0.0509
0.0502
0.0466
0.0403
0.0315
0.0207
0.0085
-0.0044
-0.0175
-0.0301
-0.0414
-0.0511
-0.0585
-0.0635
-0.0656
-0.0649
-0.0613
-0.0550
-0.0463
-0.0354
-0.0229
-0.0092
0.0052
0.0198
0.0341
0.0476
0.0599
0.0706
0.0793
0.0860
0.0903
0.0922
0.0918
0.0890
0.0839
0.0768
0.0678
0.0572
0.0452
0.0322
0.0183
0.0039
-0.0108
-0.0255
-0.0399
-0.0540
-0.0674
-0.0801
-0.0919
-0.1028
-0.1126
-0.1214
-0.1291
-0.1357
-0.1413
-0.1458
-0.1495
-0.1522
-0.1542
-0.1555
-0.1561
-0.1562
-0.1559
-0.1553
-0.1544
-0.1533
-0.1521
-0.1508
-0.1496
-0.1485
-0.1475
-0.1467
-0.1461
-0.1458
-0.1457
-0.1458
-0.1461
-0.1467
-0.1475
-0.1485
-0.1496
-0.1508
-0.1521
-0.1533
-0.1544
-0.1553
-0.1559
-0.1562
-0.1561
-0.1555
-0.1542
-0.1522
-0.1495
-0.1458
-0.1413
-0.1357
-0.1291
-0.1214
-0.1126
-0.1028
-0.0919
-0.0801
-0.0674
-0.0540
-0.0399
-0.0255
-0.0108
0.0039
0.0183
0.0322
0.0452
0.0572
0.0678
0.0768
0.0839
0.0890
0.0918
0.0922
0.0903
0.0860
0.0793
0.0706
0.0599
0.0476
0.0341
0.0198
0.0052
-0.0092
-0.0229
-0.0354
-0.0463
-0.0550
-0.0613
-0.0649
-0.0656
-0.0635
-0.0585
-0.0511
-0.0414
-0.0301
-0.0175
-0.0044
0.0085
0.0207
0.0315
0.0403
0.0466
0.0502
0.0509
0.0486
0.0435
0.0359
0.0263
0.0154
0.0037
-0.0079
-0.0186
-0.0279
-0.0352
-0.0398
-0.0417
-0.0406
-0.0367
-0.0303
-0.0218
-0.0120
-0.0015
0.0088
0.0182
0.0261
0.0317
0.0348
0.0350
0.0325
0.0274
0.0324
0.0350
0.0348
0.0317
0.0260
0.0181
0.0085
-0.0020
-0.0126
-0.0224
-0.0309
-0.0371
-0.0408
-0.0416
-0.0394
-0.0343
-0.0266
-0.0169
-0.0057
0.0061
0.0178
0.0287
0.0380
0.0451
0.0495
0.0510
0.0494
0.0448
0.0374
0.0277
0.0161
0.0032
-0.0101
-0.0233
-0.0357
-0.0465
-0.0553
-0.0616
-0.0650
-0.0655
-0.0629
-0.0574
-0.0492
-0.0387
-0.0262
-0.0123
0.0026
0.0177
0.0326
0.0467
0.0595
0.0707
0.0797
0.0865
0.0907
0.0923
0.0913
0.0876
0.0816
0.0732
0.0628
0.0507
0.0371
0.0224
0.0070
-0.0090
-0.0250
-0.0409
-0.0564
-0.0712
-0.0851
-0.0980
-0.1097
-0.1201
-0.1292
-0.1370
-0.1433
-0.1484
-0.1521
-0.1546
-0.1559
-0.1562
-0.1556
-0.1541
-0.1520
-0.1492
-0.1460
-0.1425
-0.1387
-0.1348
-0.1309
-0.1270
-0.1233
-0.1199
-0.1168
-0.1141
-0.1117
-0.1099
-0.1086
-0.1077
-0.1075
-0.1077
-0.1086
-0.1099
-0.1117
-0.1141
-0.1168
-0.1199
-0.1233
-0.1270
-0.1309
-0.1348
-0.1387
-0.1425
-0.1460
-0.1492
-0.1520
-0.1541
-0.1556
-0.1562
-0.1559
-0.1546
-0.1521
-0.1484
-0.1433
-0.1370
-0.1292
-0.1201
-0.1097
-0.0980
-0.0851
-0.0712
-0.0564
-0.0409
-0.0250
-0.0090
0.0070
0.0224
0.0371
0.0507
0.0628
0.0732
0.0816
0.0876
0.0913
0.0923
0.0907
0.0865
0.0797
0.0707
0.0595
0.0467
0.0326
0.0177
0.0026
-0.0123
-0.0262
-0.0387
-0.0492
-0.0574
-0.0629
-0.0655
-0.0650
-0.0616
-0.0553
-0.0465
-0.0357
-0.0233
-0.0101
0.0032
0.0161
0.0277
0.0374
0.0448
0.0494
0.0510
0.0495
0.0451
0.0380
0.0287
0.0178
0.0061
-0.0057
-0.0169
-0.0266
-0.0343
-0.0394
-0.0416
-0.0408
-0.0371
-0.0309
-0.0224
-0.0126
-0.0020
0.0085
0.0181
0.0260
0.0317
0.0348
0.0350
0.0324
0.0350
0.0348
0.0318
0.0261
0.0181
0.0084
-0.0022
-0.0129
-0.0229
-0.0313
-0.0375
-0.0410
-0.0415
-0.0390
-0.0335
-0.0254
-0.0153
-0.0039
0.0081
0.0199
0.0307
0.0397
0.0464
0.0502
0.0509
0.0484
0.0429
0.0345
0.0239
0.0116
-0.0018
-0.0155
-0.0287
-0.0407
-0.0509
-0.0587
-0.0637
-0.0657
-0.0644
-0.0601
-0.0527
-0.0427
-0.0305
-0.0165
-0.0015
0.0141
0.0296
0.0444
0.0579
0.0697
0.0793
0.0864
0.0908
0.0923
0.0910
0.0868
0.0798
0.0705
0.0589
0.0454
0.0304
0.0143
-0.0026
-0.0198
-0.0371
-0.0540
-0.0702
-0.0855
-0.0997
-0.1124
-0.1237
-0.1333
-0.1413
-0.1475
-0.1520
-0.1549
-0.1562
-0.1560
-0.1544
-0.1515
-0.1475
-0.1426
-0.1369
-0.1305
-0.1236
-0.1163
-0.1088
-0.1013
-0.0938
-0.0864
-0.0794
-0.0727
-0.0665
-0.0608
-0.0558
-0.0514
-0.0477
-0.0449
-0.0428
-0.0415
-0.0411
-0.0415
-0.0428
-0.0449
-0.0477
-0.0514
-0.0558
-0.0608
-0.0665
-0.0727
-0.0794
-0.0864
-0.0938
-0.1013
-0.1088
-0.1163
-0.1236
-0.1305
-0.1369
-0.1426
-0.1475
-0.1515
-0.1544
-0.1560
-0.1562
-0.1549
-0.1520
-0.1475
-0.1413
-0.1333
-0.1237
-0.1124
-0.0997
-0.0855
-0.0702
-0.0540
-0.0371
-0.0198
-0.0026
0.0143
0.0304
0.0454
0.0589
0.0705
0.0798
0.0868
0.0910
0.0923
0.0908
0.0864
0.0793
0.0697
0.0579
0.0444
0.0296
0.0141
-0.0015
-0.0165
-0.0305
-0.0427
-0.0527
-0.0601
-0.0644
-0.0657
-0.0637
-0.0587
-0.0509
-0.0407
-0.0287
-0.0155
-0.0018
0.0116
0.0239
0.0345
0.0429
0.0484
0.0509
0.0502
0.0464
0.0397
0.0307
0.0199
0.0081
-0.0039
-0.0153
-0.0254
-0.0335
-0.0390
-0.0415
-0.0410
-0.0375
-0.0313
-0.0229
-0.0129
-0.0022
0.0084
0.0181
0.0261
0.0318
0.0348
0.0350
0.0349
0.0320
0.0263
0.0182
0.0085
-0.0022
-0.0130
-0.0231
-0.0315
-0.0377
-0.0411
-0.0415
-0.0386
-0.0329
-0.0245
-0.0140
-0.0023
0.0099
0.0218
0.0324
0.0412
0.0474
0.0506
0.0506
0.0473
0.0409
0.0317
0.0203
0.0073
-0.0065
-0.0203
-0.0334
-0.0451
-0.0545
-0.0613
-0.0650
-0.0655
-0.0626
-0.0564
-0.0473
-0.0357
-0.0220
-0.0068
0.0092
0.0252
0.0407
0.0551
0.0677
0.0780
0.0858
0.0906
0.0923
0.0909
0.0864
0.0790
0.0688
0.0563
0.0417
0.0255
0.0080
-0.0101
-0.0285
-0.0469
-0.0646
-0.0815
-0.0971
-0.1113
-0.1237
-0.1342
-0.1427
-0.1492
-0.1536
-0.1559
-0.1561
-0.1545
-0.1511
-0.1460
-0.1395
-0.1316
-0.1227
-0.1128
-0.1021
-0.0909
-0.0794
-0.0676
-0.0558
-0.0440
-0.0326
-0.0215
-0.0109
-0.0009
0.0084
0.0169
0.0246
0.0314
0.0372
0.0420
0.0458
0.0485
0.0502
0.0507
0.0502
0.0485
0.0458
0.0420
0.0372
0.0314
0.0246
0.0169
0.0084
-0.0009
-0.0109
-0.0215
-0.0326
-0.0440
-0.0558
-0.0676
-0.0794
-0.0909
-0.1021
-0.1128
-0.1227
-0.1316
-0.1395
-0.1460
-0.1511
-0.1545
-0.1561
-0.1559
-0.1536
-0.1492
-0.1427
-0.1342
-0.1237
-0.1113
-0.0971
-0.0815
-0.0646
-0.0469
-0.0285
-0.0101
0.0080
0.0255
0.0417
0.0563
0.0688
0.0790
0.0864
0.0909
0.0923
0.0906
0.0858
0.0780
0.0677
0.0551
0.0407
0.0252
0.0092
-0.0068
-0.0220
-0.0357
-0.0473
-0.0564
-0.0626
-0.0655
-0.0650
-0.0613
-0.0545
-0.0451
-0.0334
-0.0203
-0.0065
0.0073
0.0203
0.0317
0.0409
0.0473
0.0506
0.0506
0.0474
0.0412
0.0324
0.0218
0.0099
-0.0023
-0.0140
-0.0245
-0.0329
-0.0386
-0.0415
-0.0411
-0.0377
-0.0315
-0.0231
-0.0130
-0.0022
0.0085
0.0182
0.0263
0.0320
0.0349
0.0323
0.0266
0.0186
0.0088
-0.0020
-0.0129
-0.0231
-0.0316
-0.0378
-0.0412
-0.0414
-0.0384
-0.0324
-0.0237
-0.0130
-0.0010
0.0114
0.0233
0.0339
0.0424
0.0482
0.0509
0.0502
0.0461
0.0389
0.0290
0.0169
0.0033
-0.0108
-0.0248
-0.0377
-0.0488
-0.0575
-0.0632
-0.0656
-0.0646
-0.0600
-0.0522
-0.0415
-0.0283
-0.0133
0.0028
0.0194
0.0356
0.0509
0.0644
0.0758
0.0844
0.0900
0.0923
0.0912
0.0868
0.0791
0.0685
0.0552
0.0397
0.0224
0.0039
-0.0154
-0.0349
-0.0542
-0.0728
-0.0902
-0.1061
-0.1201
-0.1321
-0.1418
-0.1490
-0.1538
-0.1560
-0.1558
-0.1533
-0.1484
-0.1415
-0.1326
-0.1220
-0.1099
-0.0965
-0.0821
-0.0668
-0.0510
-0.0347
-0.0183
-0.0019
0.0144
0.0303
0.0458
0.0606
0.0748
0.0881
0.1005
0.1118
0.1222
0.1314
0.1395
0.1464
0.1521
0.1565
0.1597
0.1616
0.1623
0.1616
0.1597
0.1565
0.1521
0.1464
0.1395
0.1314
0.1222
0.1118
0.1005
0.0881
0.0748
0.0606
0.0458
0.0303
0.0144
-0.0019
-0.0183
-0.0347
-0.0510
-0.0668
-0.0821
-0.0965
-0.1099
-0.1220
-0.1326
-0.1415
-0.1484
-0.1533
-0.1558
-0.1560
-0.1538
-0.1490
-0.1418
-0.1321
-0.1201
-0.1061
-0.0902
-0.0728
-0.0542
-0.0349
-0.0154
0.0039
0.0224
0.0397
0.0552
0.0685
0.0791
0.0868
0.0912
0.0923
0.0900
0.0844
0.0758
0.0644
0.0509
0.0356
0.0194
0.0028
-0.0133
-0.0283
-0.0415
-0.0522
-0.0600
-0.0646
-0.0656
-0.0632
-0.0575
-0.0488
-0.0377
-0.0248
-0.0108
0.0033
0.0169
0.0290
0.0389
0.0461
0.0502
0.0509
0.0482
0.0424
0.0339
0.0233
0.0114
-0.0010
-0.0130
-0.0237
-0.0324
-0.0384
-0.0414
-0.0412
-0.0378
-0.0316
-0.0231
-0.0129
-0.0020
0.0088
0.0186
0.0266
0.0323
0.0271
0.0192
0.0093
-0.0015
-0.0126
-0.0229
-0.0315
-0.0378
-0.0412
-0.0414
-0.0382
-0.0320
-0.0231
-0.0122
0.0000
0.0125
0.0245
0.0350
0.0433
0.0488
0.0510
0.0497
0.0449
0.0370
0.0264
0.0137
-0.0003
-0.0148
-0.0288
-0.0414
-0.0520
-0.0599
-0.0645
-0.0656
-0.0631
-0.0570
-0.0476
-0.0353
-0.0208
-0.0048
0.0121
0.0290
0.0452
0.0599
0.0724
0.0822
0.0889
0.0921
0.0917
0.0876
0.0801
0.0693
0.0557
0.0395
0.0214
0.0019
-0.0184
-0.0390
-0.0592
-0.0785
-0.0965
-0.1126
-0.1266
-0.1381
-0.1469
-0.1528
-0.1559
-0.1559
-0.1531
-0.1475
-0.1393
-0.1287
-0.1158
-0.1010
-0.0844
-0.0665
-0.0473
-0.0273
-0.0066
0.0144
0.0356
0.0568
0.0776
0.0981
0.1179
0.1370
0.1552
0.1725
0.1887
0.2038
0.2177
0.2304
0.2418
0.2520
0.2607
0.2682
0.2743
0.2791
0.2825
0.2845
0.2852
0.2845
0.2825
0.2791
0.2743
0.2682
0.2607
0.2520
0.2418
0.2304
0.2177
0.2038
0.1887
0.1725
0.1552
0.1370
0.1179
0.0981
0.0776
0.0568
0.0356
0.0144
-0.0066
-0.0273
-0.0473
-0.0665
-0.0844
-0.1010
-0.1158
-0.1287
-0.1393
-0.1475
-0.1531
-0.1559
-0.1559
-0.1528
-0.1469
-0.1381
-0.1266
-0.1126
-0.0965
-0.0785
-0.0592
-0.0390
-0.0184
0.0019
0.0214
0.0395
0.0557
0.0693
0.0801
0.0876
0.0917
0.0921
0.0889
0.0822
0.0724
0.0599
0.0452
0.0290
0.0121
-0.0048
-0.0208
-0.0353
-0.0476
-0.0570
-0.0631
-0.0656
-0.0645
-0.0599
-0.0520
-0.0414
-0.0288
-0.0148
-0.0003
0.0137
0.0264
0.0370
0.0449
0.0497
0.0510
0.0488
0.0433
0.0350
0.0245
0.0125
0.0000
-0.0122
-0.0231
-0.0320
-0.0382
-0.0414
-0.0412
-0.0378
-0.0315
-0.0229
-0.0126
-0.0015
0.0093
0.0192
0.0271
0.0199
0.0101
-0.0009
-0.0120
-0.0224
-0.0313
-0.0377
-0.0412
-0.0414
-0.0382
-0.0318
-0.0228
-0.0116
0.0007
0.0134
0.0254
0.0359
0.0441
0.0492
0.0510
0.0492
0.0438
0.0353
0.0240
0.0108
-0.0037
-0.0183
-0.0323
-0.0447
-0.0547
-0.0617
-0.0653
-0.0651
-0.0612
-0.0536
-0.0427
-0.0291
-0.0134
0.0035
0.0210
0.0380
0.0538
0.0677
0.0789
0.0870
0.0914
0.0921
0.0890
0.0820
0.0714
0.0577
0.0411
0.0224
0.0021
-0.0191
-0.0407
-0.0618
-0.0819
-0.1005
-0.1170
-0.1310
-0.1421
-0.1502
-0.1549
-0.1562
-0.1542
-0.1488
-0.1403
-0.1287
-0.1143
-0.0974
-0.0783
-0.0573
-0.0347
-0.0109
0.0139
0.0393
0.0651
0.0910
0.1167
0.1420
0.1667
0.1907
0.2138
0.2358
0.2567
0.2764
0.2948
0.3118
0.3276
0.3419
0.3549
0.3664
0.3766
0.3854
0.3928
0.3988
0.4035
0.4068
0.4088
0.4095
0.4088
0.4068
0.4035
0.3988
0.3928
0.3854
0.3766
0.3664
0.3549
0.3419
0.3276
0.3118
0.2948
0.2764
0.2567
0.2358
0.2138
0.1907
0.1667
0.1420
0.1167
0.0910
0.0651
0.0393
0.0139
-0.0109
-0.0347
-0.0573
-0.0783
-0.0974
-0.1143
-0.1287
-0.1403
-0.1488
-0.1542
-0.1562
-0.1549
-0.1502
-0.1421
-0.1310
-0.1170
-0.1005
-0.0819
-0.0618
-0.0407
-0.0191
0.0021
0.0224
0.0411
0.0577
0.0714
0.0820
0.0890
0.0921
0.0914
0.0870
0.0789
0.0677
0.0538
0.0380
0.0210
0.0035
-0.0134
-0.0291
-0.0427
-0.0536
-0.0612
-0.0651
-0.0653
-0.0617
-0.0547
-0.0447
-0.0323
-0.0183
-0.0037
0.0108
0.0240
0.0353
0.0438
0.0492
0.0510
0.0492
0.0441
0.0359
0.0254
0.0134
0.0007
-0.0116
-0.0228
-0.0318
-0.0382
-0.0414
-0.0412
-0.0377
-0.0313
-0.0224
-0.0120
-0.0009
0.0101
0.0199
0.0110
0.0001
-0.0112
-0.0218
-0.0309
-0.0375
-0.0411
-0.0414
-0.0382
-0.0318
-0.0227
-0.0114
0.0012
0.0140
0.0261
0.0366
0.0446
0.0496
0.0510
0.0487
0.0428
0.0337
0.0219
0.0082
-0.0066
-0.0214
-0.0353
-0.0474
-0.0569
-0.0631
-0.0656
-0.0643
-0.0589
-0.0500
-0.0378
-0.0229
-0.0063
0.0114
0.0292
0.0461
0.0614
0.0743
0.0840
0.0901
0.0923
0.0904
0.0844
0.0745
0.0611
0.0445
0.0255
0.0045
-0.0175
-0.0399
-0.0620
-0.0831
-0.1024
-0.1194
-0.1336
-0.1446
-0.1521
-0.1558
-0.1557
-0.1517
-0.1440
-0.1326
-0.1178
-0.0998
-0.0790
-0.0558
-0.0304
-0.0033
0.0251
0.0545
0.0846
0.1149
0.1451
0.1751
0.2045
0.2331
0.2607
0.2873
0.3125
0.3364
0.3589
0.3800
0.3995
0.4175
0.4340
0.4490
0.4626
0.4747
0.4854
0.4947
0.5027
0.5094
0.5148
0.5190
0.5220
0.5237
0.5243
0.5237
0.5220
0.5190
0.5148
0.5094
0.5027
0.4947
0.4854
0.4747
0.4626
0.4490
0.4340
0.4175
0.3995
0.3800
0.3589
0.3364
0.3125
0.2873
0.2607
0.2331
0.2045
0.1751
0.1451
0.1149
0.0846
0.0545
0.0251
-0.0033
-0.0304
-0.0558
-0.0790
-0.0998
-0.1178
-0.1326
-0.1440
-0.1517
-0.1557
-0.1558
-0.1521
-0.1446
-0.1336
-0.1194
-0.1024
-0.0831
-0.0620
-0.0399
-0.0175
0.0045
0.0255
0.0445
0.0611
0.0745
0.0844
0.0904
0.0923
0.0901
0.0840
0.0743
0.0614
0.0461
0.0292
0.0114
-0.0063
-0.0229
-0.0378
-0.0500
-0.0589
-0.0643
-0.0656
-0.0631
-0.0569
-0.0474
-0.0353
-0.0214
-0.0066
0.0082
0.0219
0.0337
0.0428
0.0487
0.0510
0.0496
0.0446
0.0366
0.0261
0.0140
0.0012
-0.0114
-0.0227
-0.0318
-0.0382
-0.0414
-0.0411
-0.0375
-0.0309
-0.0218
-0.0112
0.0001
0.0110
0.0012
-0.0102
-0.0210
-0.0303
-0.0371
-0.0410
-0.0415
-0.0384
-0.0320
-0.0228
-0.0114
0.0013
0.0143
0.0265
0.0370
0.0450
0.0498
0.0509
0.0483
0.0419
0.0323
0.0200
0.0059
-0.0092
-0.0241
-0.0380
-0.0498
-0.0587
-0.0641
-0.0657
-0.0631
-0.0565
-0.0463
-0.0328
-0.0169
0.0006
0.0188
0.0368
0.0534
0.0680
0.0797
0.0878
0.0919
0.0917
0.0872
0.0784
0.0657
0.0495
0.0304
0.0091
-0.0136
-0.0369
-0.0599
-0.0819
-0.1022
-0.1200
-0.1347
-0.1458
-0.1531
-0.1562
-0.1549
-0.1493
-0.1395
-0.1255
-0.1077
-0.0864
-0.0620
-0.0347
-0.0052
0.0262
0.0590
0.0928
0.1271
0.1616
0.1959
0.2298
0.2628
0.2948
0.3255
0.3549
0.3827
0.4088
0.4333
0.4561
0.4772
0.4965
0.5142
0.5302
0.5447
0.5576
0.5691
0.5793
0.5881
0.5957
0.6022
0.6075
0.6119
0.6152
0.6175
0.6189
0.6193
0.6189
0.6175
0.6152
0.6119
0.6075
0.6022
0.5957
0.5881
0.5793
0.5691
0.5576
0.5447
0.5302
0.5142
0.4965
0.4772
0.4561
0.4333
0.4088
0.3827
0.3549
0.3255
0.2948
0.2628
0.2298
0.1959
0.1616
0.1271
0.0928
0.0590
0.0262
-0.0052
-0.0347
-0.0620
-0.0864
-0.1077
-0.1255
-0.1395
-0.1493
-0.1549
-0.1562
-0.1531
-0.1458
-0.1347
-0.1200
-0.1022
-0.0819
-0.0599
-0.0369
-0.0136
0.0091
0.0304
0.0495
0.0657
0.0784
0.0872
0.0917
0.0919
0.0878
0.0797
0.0680
0.0534
0.0368
0.0188
0.0006
-0.0169
-0.0328
-0.0463
-0.0565
-0.0631
-0.0657
-0.0641
-0.0587
-0.0498
-0.0380
-0.0241
-0.0092
0.0059
0.0200
0.0323
0.0419
0.0483
0.0509
0.0498
0.0450
0.0370
0.0265
0.0143
0.0013
-0.0114
-0.0228
-0.0320
-0.0384
-0.0415
-0.0410
-0.0371
-0.0303
-0.0210
-0.0102
0.0012
-0.0089
-0.0200
-0.0295
-0.0367
-0.0408
-0.0415
-0.0386
-0.0324
-0.0231
-0.0116
0.0012
0.0143
0.0266
0.0373
0.0453
0.0499
0.0509
0.0479
0.0412
0.0312
0.0185
0.0040
-0.0113
-0.0264
-0.0402
-0.0517
-0.0601
-0.0648
-0.0654
-0.0618
-0.0541
-0.0426
-0.0281
-0.0112
0.0070
0.0256
0.0436
0.0599
0.0736
0.0839
0.0903
0.0923
0.0898
0.0826
0.0712
0.0558
0.0371
0.0158
-0.0074
-0.0314
-0.0554
-0.0785
-0.0999
-0.1187
-0.1342
-0.1459
-0.1534
-0.1562
-0.1543
-0.1475
-0.1360
-0.1199
-0.0995
-0.0752
-0.0473
-0.0165
0.0169
0.0523
0.0892
0.1271
0.1655
0.2038
0.2418
0.2791
0.3153
0.3501
0.3833
0.4148
0.4445
0.4721
0.4978
0.5214
0.5430
0.5626
0.5803
0.5962
0.6104
0.6230
0.6340
0.6437
0.6521
0.6593
0.6654
0.6705
0.6748
0.6783
0.6810
0.6831
0.6846
0.6854
0.6857
0.6854
0.6846
0.6831
0.6810
0.6783
0.6748
0.6705
0.6654
0.6593
0.6521
0.6437
0.6340
0.6230
0.6104
0.5962
0.5803
0.5626
0.5430
0.5214
0.4978
0.4721
0.4445
0.4148
0.3833
0.3501
0.3153
0.2791
0.2418
0.2038
0.1655
0.1271
0.0892
0.0523
0.0169
-0.0165
-0.0473
-0.0752
-0.0995
-0.1199
-0.1360
-0.1475
-0.1543
-0.1562
-0.1534
-0.1459
-0.1342
-0.1187
-0.0999
-0.0785
-0.0554
-0.0314
-0.0074
0.0158
0.0371
0.0558
0.0712
0.0826
0.0898
0.0923
0.0903
0.0839
0.0736
0.0599
0.0436
0.0256
0.0070
-0.0112
-0.0281
-0.0426
-0.0541
-0.0618
-0.0654
-0.0648
-0.0601
-0.0517
-0.0402
-0.0264
-0.0113
0.0040
0.0185
0.0312
0.0412
0.0479
0.0509
0.0499
0.0453
0.0373
0.0266
0.0143
0.0012
-0.0116
-0.0231
-0.0324
-0.0386
-0.0415
-0.0408
-0.0367
-0.0295
-0.0200
-0.0089
-0.0187
-0.0285
-0.0361
-0.0406
-0.0416
-0.0390
-0.0329
-0.0237
-0.0122
0.0007
0.0140
0.0265
0.0373
0.0453
0.0500
0.0508
0.0477
0.0407
0.0303
0.0173
0.0025
-0.0131
-0.0283
-0.0420
-0.0533
-0.0612
-0.0653
-0.0650
-0.0604
-0.0516
-0.0391
-0.0235
-0.0058
0.0130
0.0319
0.0497
0.0655
0.0782
0.0872
0.0918
0.0917
0.0868
0.0771
0.0631
0.0452
0.0242
0.0010
-0.0236
-0.0485
-0.0728
-0.0954
-0.1155
-0.1322
-0.1450
-0.1531
-0.1562
-0.1541
-0.1467
-0.1341
-0.1163
-0.0938
-0.0668
-0.0360
-0.0019
0.0351
0.0742
0.1149
0.1565
0.1986
0.2405
0.2818
0.3221
0.3610
0.3981
0.4333
0.4664
0.4971
0.5255
0.5515
0.5750
0.5962
0.6152
0.6319
0.6465
0.6593
0.6702
0.6795
0.6874
0.6939
0.6993
0.7037
0.7072
0.7099
0.7121
0.7137
0.7150
0.7158
0.7165
0.7169
0.7171
0.7172
0.7171
0.7169
0.7165
0.7158
0.7150
0.7137
0.7121
0.7099
0.7072
0.7037
0.6993
0.6939
0.6874
0.6795
0.6702
0.6593
0.6465
0.6319
0.6152
0.5962
0.5750
0.5515
0.5255
0.4971
0.4664
0.4333
0.3981
0.3610
0.3221
0.2818
0.2405
0.1986
0.1565
0.1149
0.0742
0.0351
-0.0019
-0.0360
-0.0668
-0.0938
-0.1163
-0.1341
-0.1467
-0.1541
-0.1562
-0.1531
-0.1450
-0.1322
-0.1155
-0.0954
-0.0728
-0.0485
-0.0236
0.0010
0.0242
0.0452
0.0631
0.0771
0.0868
0.0917
0.0918
0.0872
0.0782
0.0655
0.0497
0.0319
0.0130
-0.0058
-0.0235
-0.0391
-0.0516
-0.0604
-0.0650
-0.0653
-0.0612
-0.0533
-0.0420
-0.0283
-0.0131
0.0025
0.0173
0.0303
0.0407
0.0477
0.0508
0.0500
0.0453
0.0373
0.0265
0.0140
0.0007
-0.0122
-0.0237
-0.0329
-0.0390
-0.0416
-0.0406
-0.0361
-0.0285
-0.0187
-0.0274
-0.0353
-0.0402
-0.0417
-0.0394
-0.0335
-0.0245
-0.0130
0.0000
0.0134
0.0261
0.0370
0.0453
0.0500
0.0508
0.0476
0.0404
0.0298
0.0164
0.0013
-0.0145
-0.0298
-0.0435
-0.0545
-0.0621
-0.0655
-0.0645
-0.0590
-0.0492
-0.0358
-0.0193
-0.0009
0.0184
0.0374
0.0551
0.0702
0.0820
0.0895
0.0923
0.0901
0.0829
0.0708
0.0544
0.0343
0.0113
-0.0136
-0.0392
-0.0646
-0.0887
-0.1103
-0.1286
-0.1427
-0.1521
-0.1561
-0.1545
-0.1471
-0.1339
-0.1151
-0.0909
-0.0620
-0.0286
0.0084
0.0485
0.0910
0.1351
0.1803
0.2257
0.2709
0.3153
0.3583
0.3995
0.4386
0.4753
0.5094
0.5407
0.5691
0.5947
0.6175
0.6374
0.6547
0.6695
0.6819
0.6921
0.7004
0.7068
0.7117
0.7152
0.7175
0.7188
0.7193
0.7192
0.7186
0.7176
0.7165
0.7153
0.7141
0.7130
0.7121
0.7114
0.7110
0.7108
0.7110
0.7114
0.7121
0.7130
0.7141
0.7153
0.7165
0.7176
0.7186
0.7192
0.7193
0.7188
0.7175
0.7152
0.7117
0.7068
0.7004
0.6921
0.6819
0.6695
0.6547
0.6374
0.6175
0.5947
0.5691
0.5407
0.5094
0.4753
0.4386
0.3995
0.3583
0.3153
0.2709
0.2257
0.1803
0.1351
0.0910
0.0485
0.0084
-0.0286
-0.0620
-0.0909
-0.1151
-0.1339
-0.1471
-0.1545
-0.1561
-0.1521
-0.1427
-0.1286
-0.1103
-0.0887
-0.0646
-0.0392
-0.0136
0.0113
0.0343
0.0544
0.0708
0.0829
0.0901
0.0923
0.0895
0.0820
0.0702
0.0551
0.0374
0.0184
-0.0009
-0.0193
-0.0358
-0.0492
-0.0590
-0.0645
-0.0655
-0.0621
-0.0545
-0.0435
-0.0298
-0.0145
0.0013
0.0164
0.0298
0.0404
0.0476
0.0508
0.0500
0.0453
0.0370
0.0261
0.0134
0.0000
-0.0130
-0.0245
-0.0335
-0.0394
-0.0417
-0.0402
-0.0353
-0.0274
-0.0343
-0.0398
-0.0417
-0.0398
-0.0343
-0.0254
-0.0140
-0.0010
0.0125
0.0254
0.0366
0.0450
0.0499
0.0508
0.0476
0.0403
0.0295
0.0159
0.0005
-0.0155
-0.0309
-0.0446
-0.0555
-0.0627
-0.0656
-0.0640
-0.0577
-0.0471
-0.0327
-0.0155
0.0035
0.0232
0.0424
0.0598
0.0743
0.0849
0.0911
0.0921
0.0879
0.0784
0.0641
0.0454
0.0232
-0.0015
-0.0276
-0.0540
-0.0794
-0.1028
-0.1230
-0.1390
-0.1502
-0.1557
-0.1552
-0.1485
-0.1355
-0.1163
-0.0913
-0.0608
-0.0255
0.0139
0.0568
0.1022
0.1496
0.1979
0.2466
0.2948
0.3419
0.3874
0.4307
0.4715
0.5094
0.5441
0.5756
0.6037
0.6284
0.6497
0.6678
0.6828
0.6949
0.7042
0.7111
0.7158
0.7184
0.7193
0.7187
0.7169
0.7141
0.7105
0.7064
0.7018
0.6971
0.6924
0.6878
0.6834
0.6794
0.6758
0.6728
0.6704
0.6686
0.6676
0.6672
0.6676
0.6686
0.6704
0.6728
0.6758
0.6794
0.6834
0.6878
0.6924
0.6971
0.7018
0.7064
0.7105
0.7141
0.7169
0.7187
0.7193
0.7184
0.7158
0.7111
0.7042
0.6949
0.6828
0.6678
0.6497
0.6284
0.6037
0.5756
0.5441
0.5094
0.4715
0.4307
0.3874
0.3419
0.2948
0.2466
0.1979
0.1496
0.1022
0.0568
0.0139
-0.0255
-0.0608
-0.0913
-0.1163
-0.1355
-0.1485
-0.1552
-0.1557
-0.1502
-0.1390
-0.1230
-0.1028
-0.0794
-0.0540
-0.0276
-0.0015
0.0232
0.0454
0.0641
0.0784
0.0879
0.0921
0.0911
0.0849
0.0743
0.0598
0.0424
0.0232
0.0035
-0.0155
-0.0327
-0.0471
-0.0577
-0.0640
-0.0656
-0.0627
-0.0555
-0.0446
-0.0309
-0.0155
0.0005
0.0159
0.0295
0.0403
0.0476
0.0508
0.0499
0.0450
0.0366
0.0254
0.0125
-0.0010
-0.0140
-0.0254
-0.0343
-0.0398
-0.0417
-0.0398
-0.0343
-0.0392
-0.0417
-0.0403
-0.0352
-0.0266
-0.0153
-0.0023
0.0114
0.0245
0.0359
0.0446
0.0498
0.0509
0.0477
0.0404
0.0295
0.0157
0.0001
-0.0160
-0.0316
-0.0454
-0.0562
-0.0632
-0.0657
-0.0635
-0.0565
-0.0451
-0.0300
-0.0121
0.0075
0.0275
0.0467
0.0638
0.0776
0.0872
0.0919
0.0913
0.0851
0.0735
0.0570
0.0363
0.0124
-0.0138
-0.0409
-0.0677
-0.0928
-0.1151
-0.1335
-0.1469
-0.1546
-0.1560
-0.1507
-0.1387
-0.1199
-0.0947
-0.0635
-0.0269
0.0144
0.0595
0.1076
0.1578
0.2091
0.2607
0.3118
0.3617
0.4095
0.4548
0.4971
0.5361
0.5713
0.6027
0.6301
0.6536
0.6732
0.6890
0.7012
0.7101
0.7158
0.7188
0.7192
0.7174
0.7136
0.7083
0.7016
0.6939
0.6855
0.6765
0.6672
0.6578
0.6486
0.6396
0.6311
0.6231
0.6158
0.6093
0.6037
0.5990
0.5953
0.5926
0.5910
0.5905
0.5910
0.5926
0.5953
0.5990
0.6037
0.6093
0.6158
0.6231
0.6311
0.6396
0.6486
0.6578
0.6672
0.6765
0.6855
0.6939
0.7016
0.7083
0.7136
0.7174
0.7192
0.7188
0.7158
0.7101
0.7012
0.6890
0.6732
0.6536
0.6301
0.6027
0.5713
0.5361
0.4971
0.4548
0.4095
0.3617
0.3118
0.2607
0.2091
0.1578
0.1076
0.0595
0.0144
-0.0269
-0.0635
-0.0947
-0.1199
-0.1387
-0.1507
-0.1560
-0.1546
-0.1469
-0.1335
-0.1151
-0.0928
-0.0677
-0.0409
-0.0138
0.0124
0.0363
0.0570
0.0735
0.0851
0.0913
0.0919
0.0872
0.0776
0.0638
0.0467
0.0275
0.0075
-0.0121
-0.0300
-0.0451
-0.0565
-0.0635
-0.0657
-0.0632
-0.0562
-0.0454
-0.0316
-0.0160
0.0001
0.0157
0.0295
0.0404
0.0477
0.0509
0.0498
0.0446
0.0359
0.0245
0.0114
-0.0023
-0.0153
-0.0266
-0.0352
-0.0403
-0.0417
-0.0392
-0.0415
-0.0408
-0.0361
-0.0279
-0.0169
-0.0039
0.0099
0.0233
0.0350
0.0441
0.0496
0.0509
0.0479
0.0407
0.0298
0.0159
0.0001
-0.0162
-0.0320
-0.0458
-0.0566
-0.0635
-0.0657
-0.0630
-0.0555
-0.0435
-0.0277
-0.0092
0.0109
0.0312
0.0504
0.0671
0.0803
0.0889
0.0923
0.0900
0.0820
0.0685
0.0500
0.0275
0.0019
-0.0255
-0.0533
-0.0801
-0.1047
-0.1256
-0.1418
-0.1522
-0.1562
-0.1533
-0.1430
-0.1255
-0.1010
-0.0698
-0.0326
0.0099
0.0568
0.1070
0.1597
0.2138
0.2682
0.3221
0.3745
0.4248
0.4721
0.5160
0.5560
0.5917
0.6230
0.6497
0.6719
0.6895
0.7029
0.7121
0.7175
0.7193
0.7179
0.7138
0.7071
0.6983
0.6878
0.6758
0.6628
0.6490
0.6347
0.6202
0.6058
0.5915
0.5777
0.5645
0.5520
0.5404
0.5298
0.5202
0.5118
0.5045
0.4986
0.4939
0.4905