# vtk DataFile Version 1.0
2D Sin graph datase
ASCII

DATASET STRUCTURED_POINTS
DIMENSIONS 201 201 1
ORIGIN 0 0 0
SPACING 0.05 0.05 0.05

POINT_DATA 40401

SCALARS scalars float
LOOKUP_TABLE default
-0.0097
0.0213
0.0568
0.0954
0.1357
0.1760
0.2145
0.2498
0.2804
0.3051
0.3228
0.3331
0.3355
0.3301
0.3174
0.2979
0.2726
0.2426
0.2090
0.1733
0.1367
0.1006
0.0660
0.0339
0.0053
-0.0192
-0.0392
-0.0546
-0.0651
-0.0711
-0.0729
-0.0709
-0.0656
-0.0576
-0.0477
-0.0365
-0.0245
-0.0124
-0.0008
0.0101
0.0197
0.0278
0.0342
0.0389
0.0419
0.0430
0.0426
0.0407
0.0376
0.0333
0.0283
0.0227
0.0166
0.0105
0.0043
-0.0016
-0.0072
-0.0123
-0.0169
-0.0208
-0.0241
-0.0267
-0.0286
-0.0299
-0.0305
-0.0306
-0.0302
-0.0292
-0.0279
-0.0263
-0.0243
-0.0222
-0.0198
-0.0174
-0.0149
-0.0124
-0.0099
-0.0075
-0.0051
-0.0028
-0.0007
0.0014
0.0033
0.0050
0.0067
0.0082
0.0095
0.0108
0.0119
0.0129
0.0137
0.0145
0.0152
0.0157
0.0162
0.0166
0.0169
0.0172
0.0173
0.0174
0.0175
0.0174
0.0173
0.0172
0.0169
0.0166
0.0162
0.0157
0.0152
0.0145
0.0137
0.0129
0.0119
0.0108
0.0095
0.0082
0.0067
0.0050
0.0033
0.0014
-0.0007
-0.0028
-0.0051
-0.0075
-0.0099
-0.0124
-0.0149
-0.0174
-0.0198
-0.0222
-0.0243
-0.0263
-0.0279
-0.0292
-0.0302
-0.0306
-0.0305
-0.0299
-0.0286
-0.0267
-0.0241
-0.0208
-0.0169
-0.0123
-0.0072
-0.0016
0.0043
0.0105
0.0166
0.0227
0.0283
0.0333
0.0376
0.0407
0.0426
0.0430
0.0419
0.0389
0.0342
0.0278
0.0197
0.0101
-0.0008
-0.0124
-0.0245
-0.0365
-0.0477
-0.0576
-0.0656
-0.0709
-0.0729
-0.0711
-0.0651
-0.0546
-0.0392
-0.0192
0.0053
0.0339
0.0660
0.1006
0.1367
0.1733
0.2090
0.2426
0.2726
0.2979
0.3174
0.3301
0.3355
0.3331
0.3228
0.3051
0.2804
0.2498
0.2145
0.1760
0.1357
0.0954
0.0568
0.0213
-0.0097
0.0213
0.0572
0.0963
0.1370
0.1776
0.2165
0.2520
0.2825
0.3069
0.3242
0.3337
0.3352
0.3288
0.3149
0.2941
0.2675
0.2363
0.2017
0.1652
0.1281
0.0916
0.0570
0.0254
-0.0025
-0.0261
-0.0450
-0.0589
-0.0679
-0.0723
-0.0725
-0.0689
-0.0622
-0.0531
-0.0422
-0.0302
-0.0178
-0.0056
0.0059
0.0162
0.0252
0.0324
0.0378
0.0413
0.0429
0.0428
0.0411
0.0380
0.0338
0.0286
0.0227
0.0165
0.0100
0.0036
-0.0026
-0.0083
-0.0136
-0.0182
-0.0221
-0.0253
-0.0278
-0.0294
-0.0304
-0.0307
-0.0303
-0.0294
-0.0280
-0.0261
-0.0240
-0.0215
-0.0189
-0.0161
-0.0133
-0.0104
-0.0075
-0.0047
-0.0020
0.0005
0.0030
0.0052
0.0074
0.0093
0.0111
0.0127
0.0141
0.0154
0.0166
0.0176
0.0184
0.0192
0.0198
0.0204
0.0209
0.0213
0.0216
0.0218
0.0220
0.0222
0.0223
0.0224
0.0225
0.0225
0.0225
0.0224
0.0223
0.0222
0.0220
0.0218
0.0216
0.0213
0.0209
0.0204
0.0198
0.0192
0.0184
0.0176
0.0166
0.0154
0.0141
0.0127
0.0111
0.0093
0.0074
0.0052
0.0030
0.0005
-0.0020
-0.0047
-0.0075
-0.0104
-0.0133
-0.0161
-0.0189
-0.0215
-0.0240
-0.0261
-0.0280
-0.0294
-0.0303
-0.0307
-0.0304
-0.0294
-0.0278
-0.0253
-0.0221
-0.0182
-0.0136
-0.0083
-0.0026
0.0036
0.0100
0.0165
0.0227
0.0286
0.0338
0.0380
0.0411
0.0428
0.0429
0.0413
0.0378
0.0324
0.0252
0.0162
0.0059
-0.0056
-0.0178
-0.0302
-0.0422
-0.0531
-0.0622
-0.0689
-0.0725
-0.0723
-0.0679
-0.0589
-0.0450
-0.0261
-0.0025
0.0254
0.0570
0.0916
0.1281
0.1652
0.2017
0.2363
0.2675
0.2941
0.3149
0.3288
0.3352
0.3337
0.3242
0.3069
0.2825
0.2520
0.2165
0.1776
0.1370
0.0963
0.0572
0.0213
0.0568
0.0963
0.1374
0.1785
0.2177
0.2534
0.2840
0.3083
0.3252
0.3342
0.3350
0.3276
0.3126
0.2907
0.2630
0.2307
0.1952
0.1580
0.1203
0.0836
0.0491
0.0178
-0.0094
-0.0321
-0.0498
-0.0623
-0.0699
-0.0729
-0.0715
-0.0666
-0.0586
-0.0484
-0.0367
-0.0242
-0.0116
0.0006
0.0118
0.0216
0.0298
0.0360
0.0403
0.0426
0.0430
0.0417
0.0388
0.0346
0.0294
0.0234
0.0169
0.0102
0.0035
-0.0029
-0.0089
-0.0143
-0.0190
-0.0230
-0.0261
-0.0284
-0.0299
-0.0306
-0.0305
-0.0298
-0.0285
-0.0266
-0.0243
-0.0217
-0.0188
-0.0157
-0.0126
-0.0094
-0.0062
-0.0030
-0.0000
0.0028
0.0055
0.0080
0.0103
0.0124
0.0142
0.0159
0.0173
0.0186
0.0197
0.0206
0.0214
0.0220
0.0225
0.0229
0.0232
0.0234
0.0236
0.0237
0.0238
0.0238
0.0238
0.0238
0.0238
0.0238
0.0238
0.0238
0.0237
0.0238
0.0238
0.0238
0.0238
0.0238
0.0238
0.0238
0.0238
0.0237
0.0236
0.0234
0.0232
0.0229
0.0225
0.0220
0.0214
0.0206
0.0197
0.0186
0.0173
0.0159
0.0142
0.0124
0.0103
0.0080
0.0055
0.0028
-0.0000
-0.0030
-0.0062
-0.0094
-0.0126
-0.0157
-0.0188
-0.0217
-0.0243
-0.0266
-0.0285
-0.0298
-0.0305
-0.0306
-0.0299
-0.0284
-0.0261
-0.0230
-0.0190
-0.0143
-0.0089
-0.0029
0.0035
0.0102
0.0169
0.0234
0.0294
0.0346
0.0388
0.0417
0.0430
0.0426
0.0403
0.0360
0.0298
0.0216
0.0118
0.0006
-0.0116
-0.0242
-0.0367
-0.0484
-0.0586
-0.0666
-0.0715
-0.0729
-0.0699
-0.0623
-0.0498
-0.0321
-0.0094
0.0178
0.0491
0.0836
0.1203
0.1580
0.1952
0.2307
0.2630
0.2907
0.3126
0.3276
0.3350
0.3342
0.3252
0.3083
0.2840
0.2534
0.2177
0.1785
0.1374
0.0963
0.0568
0.0954
0.1370
0.1785
0.2181
0.2541
0.2849
0.3092
0.3259
0.3345
0.3347
0.3266
0.3107
0.2878
0.2591
0.2259
0.1895
0.1516
0.1135
0.0766
0.0422
0.0112
-0.0154
-0.0372
-0.0537
-0.0651
-0.0713
-0.0729
-0.0702
-0.0640
-0.0549
-0.0438
-0.0314
-0.0185
-0.0057
0.0063
0.0171
0.0263
0.0336
0.0388
0.0420
0.0431
0.0423
0.0398
0.0358
0.0307
0.0246
0.0180
0.0111
0.0041
-0.0026
-0.0088
-0.0145
-0.0194
-0.0234
-0.0266
-0.0288
-0.0302
-0.0307
-0.0303
-0.0293
-0.0276
-0.0253
-0.0226
-0.0196
-0.0163
-0.0129
-0.0094
-0.0058
-0.0024
0.0009
0.0040
0.0070
0.0097
0.0121
0.0143
0.0163
0.0180
0.0194
0.0206
0.0216
0.0223
0.0229
0.0233
0.0236
0.0238
0.0238
0.0238
0.0236
0.0235
0.0232
0.0230
0.0227
0.0225
0.0222
0.0220
0.0218
0.0216
0.0215
0.0214
0.0213
0.0213
0.0213
0.0214
0.0215
0.0216
0.0218
0.0220
0.0222
0.0225
0.0227
0.0230
0.0232
0.0235
0.0236
0.0238
0.0238
0.0238
0.0236
0.0233
0.0229
0.0223
0.0216
0.0206
0.0194
0.0180
0.0163
0.0143
0.0121
0.0097
0.0070
0.0040
0.0009
-0.0024
-0.0058
-0.0094
-0.0129
-0.0163
-0.0196
-0.0226
-0.0253
-0.0276
-0.0293
-0.0303
-0.0307
-0.0302
-0.0288
-0.0266
-0.0234
-0.0194
-0.0145
-0.0088
-0.0026
0.0041
0.0111
0.0180
0.0246
0.0307
0.0358
0.0398
0.0423
0.0431
0.0420
0.0388
0.0336
0.0263
0.0171
0.0063
-0.0057
-0.0185
-0.0314
-0.0438
-0.0549
-0.0640
-0.0702
-0.0729
-0.0713
-0.0651
-0.0537
-0.0372
-0.0154
0.0112
0.0422
0.0766
0.1135
0.1516
0.1895
0.2259
0.2591
0.2878
0.3107
0.3266
0.3347
0.3345
0.3259
0.3092
0.2849
0.2541
0.2181
0.1785
0.1370
0.0954
0.1357
0.1776
0.2177
0.2541
0.2852
0.3096
0.3263
0.3347
0.3344
0.3257
0.3091
0.2854
0.2559
0.2218
0.1847
0.1461
0.1076
0.0705
0.0361
0.0055
-0.0205
-0.0415
-0.0570
-0.0672
-0.0722
-0.0725
-0.0686
-0.0612
-0.0512
-0.0393
-0.0264
-0.0132
-0.0004
0.0114
0.0217
0.0302
0.0366
0.0408
0.0429
0.0428
0.0409
0.0373
0.0324
0.0264
0.0197
0.0126
0.0054
-0.0016
-0.0082
-0.0141
-0.0192
-0.0235
-0.0267
-0.0290
-0.0303
-0.0306
-0.0301
-0.0288
-0.0268
-0.0242
-0.0212
-0.0178
-0.0141
-0.0104
-0.0066
-0.0028
0.0008
0.0042
0.0075
0.0104
0.0131
0.0154
0.0175
0.0192
0.0206
0.0218
0.0226
0.0232
0.0236
0.0238
0.0238
0.0236
0.0233
0.0230
0.0225
0.0219
0.0214
0.0208
0.0202
0.0195
0.0190
0.0184
0.0179
0.0174
0.0170
0.0166
0.0163
0.0160
0.0159
0.0158
0.0157
0.0158
0.0159
0.0160
0.0163
0.0166
0.0170
0.0174
0.0179
0.0184
0.0190
0.0195
0.0202
0.0208
0.0214
0.0219
0.0225
0.0230
0.0233
0.0236
0.0238
0.0238
0.0236
0.0232
0.0226
0.0218
0.0206
0.0192
0.0175
0.0154
0.0131
0.0104
0.0075
0.0042
0.0008
-0.0028
-0.0066
-0.0104
-0.0141
-0.0178
-0.0212
-0.0242
-0.0268
-0.0288
-0.0301
-0.0306
-0.0303
-0.0290
-0.0267
-0.0235
-0.0192
-0.0141
-0.0082
-0.0016
0.0054
0.0126
0.0197
0.0264
0.0324
0.0373
0.0409
0.0428
0.0429
0.0408
0.0366
0.0302
0.0217
0.0114
-0.0004
-0.0132
-0.0264
-0.0393
-0.0512
-0.0612
-0.0686
-0.0725
-0.0722
-0.0672
-0.0570
-0.0415
-0.0205
0.0055
0.0361
0.0705
0.1076
0.1461
0.1847
0.2218
0.2559
0.2854
0.3091
0.3257
0.3344
0.3347
0.3263
0.3096
0.2852
0.2541
0.2177
0.1776
0.1357
0.1760
0.2165
0.2534
0.2849
0.3096
0.3265
0.3348
0.3343
0.3252
0.3080
0.2836
0.2533
0.2185
0.1807
0.1415
0.1026
0.0653
0.0310
0.0007
-0.0249
-0.0451
-0.0597
-0.0688
-0.0727
-0.0718
-0.0668
-0.0584
-0.0475
-0.0350
-0.0216
-0.0083
0.0045
0.0159
0.0257
0.0334
0.0389
0.0421
0.0431
0.0420
0.0390
0.0344
0.0286
0.0219
0.0147
0.0073
0.0000
-0.0069
-0.0131
-0.0186
-0.0231
-0.0266
-0.0290
-0.0303
-0.0306
-0.0300
-0.0285
-0.0263
-0.0234
-0.0201
-0.0163
-0.0124
-0.0084
-0.0043
-0.0004
0.0034
0.0070
0.0102
0.0132
0.0157
0.0179
0.0198
0.0212
0.0223
0.0231
0.0236
0.0238
0.0237
0.0235
0.0230
0.0224
0.0216
0.0208
0.0199
0.0189
0.0179
0.0169
0.0159
0.0149
0.0140
0.0131
0.0122
0.0115
0.0108
0.0101
0.0096
0.0091
0.0087
0.0084
0.0082
0.0081
0.0080
0.0081
0.0082
0.0084
0.0087
0.0091
0.0096
0.0101
0.0108
0.0115
0.0122
0.0131
0.0140
0.0149
0.0159
0.0169
0.0179
0.0189
0.0199
0.0208
0.0216
0.0224
0.0230
0.0235
0.0237
0.0238
0.0236
0.0231
0.0223
0.0212
0.0198
0.0179
0.0157
0.0132
0.0102
0.0070
0.0034
-0.0004
-0.0043
-0.0084
-0.0124
-0.0163
-0.0201
-0.0234
-0.0263
-0.0285
-0.0300
-0.0306
-0.0303
-0.0290
-0.0266
-0.0231
-0.0186
-0.0131
-0.0069
0.0000
0.0073
0.0147
0.0219
0.0286
0.0344
0.0390
0.0420
0.0431
0.0421
0.0389
0.0334
0.0257
0.0159
0.0045
-0.0083
-0.0216
-0.0350
-0.0475
-0.0584
-0.0668
-0.0718
-0.0727
-0.0688
-0.0597
-0.0451
-0.0249
0.0007
0.0310
0.0653
0.1026
0.1415
0.1807
0.2185
0.2533
0.2836
0.3080
0.3252
0.3343
0.3348
0.3265
0.3096
0.2849
0.2534
0.2165
0.1760
0.2145
0.2520
0.2840
0.3092
0.3263
0.3348
0.3342
0.3249
0.3073
0.2824
0.2515
0.2160
0.1776
0.1379
0.0986
0.0611
0.0267
-0.0034
-0.0285
-0.0480
-0.0619
-0.0700
-0.0729
-0.0710
-0.0650
-0.0557
-0.0441
-0.0310
-0.0173
-0.0038
0.0088
0.0199
0.0291
0.0360
0.0406
0.0428
0.0428
0.0406
0.0367
0.0313
0.0247
0.0175
0.0099
0.0023
-0.0050
-0.0116
-0.0175
-0.0223
-0.0261
-0.0288
-0.0303
-0.0306
-0.0300
-0.0284
-0.0260
-0.0229
-0.0193
-0.0154
-0.0112
-0.0069
-0.0026
0.0016
0.0055
0.0091
0.0124
0.0153
0.0177
0.0198
0.0214
0.0225
0.0233
0.0237
0.0238
0.0235
0.0230
0.0223
0.0214
0.0203
0.0191
0.0178
0.0164
0.0150
0.0136
0.0122
0.0109
0.0096
0.0083
0.0071
0.0060
0.0050
0.0040
0.0032
0.0024
0.0017
0.0011
0.0006
0.0002
-0.0001
-0.0004
-0.0005
-0.0005
-0.0005
-0.0004
-0.0001
0.0002
0.0006
0.0011
0.0017
0.0024
0.0032
0.0040
0.0050
0.0060
0.0071
0.0083
0.0096
0.0109
0.0122
0.0136
0.0150
0.0164
0.0178
0.0191
0.0203
0.0214
0.0223
0.0230
0.0235
0.0238
0.0237
0.0233
0.0225
0.0214
0.0198
0.0177
0.0153
0.0124
0.0091
0.0055
0.0016
-0.0026
-0.0069
-0.0112
-0.0154
-0.0193
-0.0229
-0.0260
-0.0284
-0.0300
-0.0306
-0.0303
-0.0288
-0.0261
-0.0223
-0.0175
-0.0116
-0.0050
0.0023
0.0099
0.0175
0.0247
0.0313
0.0367
0.0406
0.0428
0.0428
0.0406
0.0360
0.0291
0.0199
0.0088
-0.0038
-0.0173
-0.0310
-0.0441
-0.0557
-0.0650
-0.0710
-0.0729
-0.0700
-0.0619
-0.0480
-0.0285
-0.0034
0.0267
0.0611
0.0986
0.1379
0.1776
0.2160
0.2515
0.2824
0.3073
0.3249
0.3342
0.3348
0.3263
0.3092
0.2840
0.2520
0.2145
0.2498
0.2825
0.3083
0.3259
0.3347
0.3343
0.3249
0.3070
0.2818
0.2503
0.2143
0.1753
0.1351
0.0954
0.0577
0.0233
-0.0067
-0.0314
-0.0504
-0.0636
-0.0709
-0.0729
-0.0700
-0.0631
-0.0531
-0.0408
-0.0272
-0.0133
0.0002
0.0126
0.0233
0.0319
0.0381
0.0418
0.0431
0.0420
0.0389
0.0341
0.0279
0.0208
0.0131
0.0053
-0.0024
-0.0095
-0.0158
-0.0211
-0.0253
-0.0283
-0.0301
-0.0307
-0.0301
-0.0285
-0.0260
-0.0228
-0.0190
-0.0148
-0.0104
-0.0058
-0.0014
0.0030
0.0070
0.0107
0.0140
0.0169
0.0192
0.0210
0.0224
0.0233
0.0237
0.0238
0.0234
0.0227
0.0218
0.0206
0.0192
0.0177
0.0160
0.0143
0.0126
0.0108
0.0091
0.0073
0.0057
0.0041
0.0026
0.0012
-0.0001
-0.0014
-0.0025
-0.0035
-0.0044
-0.0052
-0.0060
-0.0066
-0.0071
-0.0076
-0.0079
-0.0082
-0.0084
-0.0085
-0.0086
-0.0085
-0.0084
-0.0082
-0.0079
-0.0076
-0.0071
-0.0066
-0.0060
-0.0052
-0.0044
-0.0035
-0.0025
-0.0014
-0.0001
0.0012
0.0026
0.0041
0.0057
0.0073
0.0091
0.0108
0.0126
0.0143
0.0160
0.0177
0.0192
0.0206
0.0218
0.0227
0.0234
0.0238
0.0237
0.0233
0.0224
0.0210
0.0192
0.0169
0.0140
0.0107
0.0070
0.0030
-0.0014
-0.0058
-0.0104
-0.0148
-0.0190
-0.0228
-0.0260
-0.0285
-0.0301
-0.0307
-0.0301
-0.0283
-0.0253
-0.0211
-0.0158
-0.0095
-0.0024
0.0053
0.0131
0.0208
0.0279
0.0341
0.0389
0.0420
0.0431
0.0418
0.0381
0.0319
0.0233
0.0126
0.0002
-0.0133
-0.0272
-0.0408
-0.0531
-0.0631
-0.0700
-0.0729
-0.0709
-0.0636
-0.0504
-0.0314
-0.0067
0.0233
0.0577
0.0954
0.1351
0.1753
0.2143
0.2503
0.2818
0.3070
0.3249
0.3343
0.3347
0.3259
0.3083
0.2825
0.2498
0.2804
0.3069
0.3252
0.3345
0.3344
0.3252
0.3073
0.2818
0.2500
0.2135
0.1740
0.1333
0.0932
0.0551
0.0206
-0.0093
-0.0338
-0.0524
-0.0649
-0.0716
-0.0727
-0.0691
-0.0614
-0.0506
-0.0378
-0.0238
-0.0097
0.0038
0.0160
0.0263
0.0342
0.0397
0.0426
0.0429
0.0410
0.0370
0.0314
0.0245
0.0169
0.0089
0.0009
-0.0066
-0.0135
-0.0194
-0.0241
-0.0276
-0.0297
-0.0306
-0.0303
-0.0288
-0.0263
-0.0231
-0.0192
-0.0148
-0.0101
-0.0054
-0.0007
0.0038
0.0080
0.0118
0.0152
0.0180
0.0202
0.0219
0.0231
0.0237
0.0238
0.0235
0.0227
0.0216
0.0203
0.0186
0.0168
0.0149
0.0128
0.0108
0.0087
0.0066
0.0046
0.0026
0.0007
-0.0010
-0.0027
-0.0042
-0.0057
-0.0070
-0.0081
-0.0092
-0.0102
-0.0110
-0.0118
-0.0124
-0.0130
-0.0135
-0.0139
-0.0142
-0.0145
-0.0147
-0.0148
-0.0149
-0.0149
-0.0149
-0.0148
-0.0147
-0.0145
-0.0142
-0.0139
-0.0135
-0.0130
-0.0124
-0.0118
-0.0110
-0.0102
-0.0092
-0.0081
-0.0070
-0.0057
-0.0042
-0.0027
-0.0010
0.0007
0.0026
0.0046
0.0066
0.0087
0.0108
0.0128
0.0149
0.0168
0.0186
0.0203
0.0216
0.0227
0.0235
0.0238
0.0237
0.0231
0.0219
0.0202
0.0180
0.0152
0.0118
0.0080
0.0038
-0.0007
-0.0054
-0.0101
-0.0148
-0.0192
-0.0231
-0.0263
-0.0288
-0.0303
-0.0306
-0.0297
-0.0276
-0.0241
-0.0194
-0.0135
-0.0066
0.0009
0.0089
0.0169
0.0245
0.0314
0.0370
0.0410
0.0429
0.0426
0.0397
0.0342
0.0263
0.0160
0.0038
-0.0097
-0.0238
-0.0378
-0.0506
-0.0614
-0.0691
-0.0727
-0.0716
-0.0649
-0.0524
-0.0338
-0.0093
0.0206
0.0551
0.0932
0.1333
0.1740
0.2135
0.2500
0.2818
0.3073
0.3252
0.3344
0.3345
0.3252
0.3069
0.2804
0.3051
0.3242
0.3342
0.3347
0.3257
0.3080
0.2824
0.2503
0.2135
0.1735
0.1324
0.0918
0.0535
0.0188
-0.0112
-0.0355
-0.0538
-0.0659
-0.0720
-0.0725
-0.0681
-0.0598
-0.0484
-0.0351
-0.0208
-0.0065
0.0070
0.0189
0.0288
0.0362
0.0409
0.0430
0.0425
0.0397
0.0349
0.0286
0.0212
0.0132
0.0049
-0.0031
-0.0105
-0.0170
-0.0223
-0.0264
-0.0292
-0.0305
-0.0305
-0.0293
-0.0269
-0.0237
-0.0197
-0.0152
-0.0104
-0.0054
-0.0005
0.0042
0.0086
0.0125
0.0159
0.0187
0.0209
0.0225
0.0234
0.0238
0.0236
0.0230
0.0219
0.0204
0.0186
0.0166
0.0144
0.0121
0.0097
0.0073
0.0050
0.0026
0.0004
-0.0017
-0.0037
-0.0056
-0.0073
-0.0089
-0.0103
-0.0116
-0.0127
-0.0137
-0.0145
-0.0153
-0.0159
-0.0165
-0.0170
-0.0174
-0.0177
-0.0179
-0.0181
-0.0183
-0.0184
-0.0185
-0.0186
-0.0186
-0.0187
-0.0186
-0.0186
-0.0185
-0.0184
-0.0183
-0.0181
-0.0179
-0.0177
-0.0174
-0.0170
-0.0165
-0.0159
-0.0153
-0.0145
-0.0137
-0.0127
-0.0116
-0.0103
-0.0089
-0.0073
-0.0056
-0.0037
-0.0017
0.0004
0.0026
0.0050
0.0073
0.0097
0.0121
0.0144
0.0166
0.0186
0.0204
0.0219
0.0230
0.0236
0.0238
0.0234
0.0225
0.0209
0.0187
0.0159
0.0125
0.0086
0.0042
-0.0005
-0.0054
-0.0104
-0.0152
-0.0197
-0.0237
-0.0269
-0.0293
-0.0305
-0.0305
-0.0292
-0.0264
-0.0223
-0.0170
-0.0105
-0.0031
0.0049
0.0132
0.0212
0.0286
0.0349
0.0397
0.0425
0.0430
0.0409
0.0362
0.0288
0.0189
0.0070
-0.0065
-0.0208
-0.0351
-0.0484
-0.0598
-0.0681
-0.0725
-0.0720
-0.0659
-0.0538
-0.0355
-0.0112
0.0188
0.0535
0.0918
0.1324
0.1735
0.2135
0.2503
0.2824
0.3080
0.3257
0.3347
0.3342
0.3242
0.3051
0.3228
0.3337
0.3350
0.3266
0.3091
0.2836
0.2515
0.2143
0.1740
0.1324
0.0914
0.0526
0.0176
-0.0125
-0.0368
-0.0549
-0.0667
-0.0723
-0.0722
-0.0673
-0.0584
-0.0465
-0.0327
-0.0181
-0.0037
0.0097
0.0214
0.0309
0.0377
0.0418
0.0431
0.0418
0.0383
0.0328
0.0259
0.0180
0.0096
0.0013
-0.0067
-0.0139
-0.0200
-0.0248
-0.0282
-0.0301
-0.0306
-0.0298
-0.0277
-0.0246
-0.0207
-0.0161
-0.0112
-0.0060
-0.0009
0.0040
0.0086
0.0127
0.0162
0.0191
0.0213
0.0228
0.0236
0.0238
0.0234
0.0224
0.0210
0.0192
0.0171
0.0147
0.0122
0.0096
0.0069
0.0042
0.0016
-0.0009
-0.0032
-0.0054
-0.0075
-0.0094
-0.0111
-0.0125
-0.0139
-0.0150
-0.0160
-0.0168
-0.0175
-0.0180
-0.0185
-0.0188
-0.0190
-0.0192
-0.0193
-0.0194
-0.0194
-0.0195
-0.0194
-0.0194
-0.0194
-0.0194
-0.0194
-0.0193
-0.0193
-0.0193
-0.0194
-0.0194
-0.0194
-0.0194
-0.0194
-0.0195
-0.0194
-0.0194
-0.0193
-0.0192
-0.0190
-0.0188
-0.0185
-0.0180
-0.0175
-0.0168
-0.0160
-0.0150
-0.0139
-0.0125
-0.0111
-0.0094
-0.0075
-0.0054
-0.0032
-0.0009
0.0016
0.0042
0.0069
0.0096
0.0122
0.0147
0.0171
0.0192
0.0210
0.0224
0.0234
0.0238
0.0236
0.0228
0.0213
0.0191
0.0162
0.0127
0.0086
0.0040
-0.0009
-0.0060
-0.0112
-0.0161
-0.0207
-0.0246
-0.0277
-0.0298
-0.0306
-0.0301
-0.0282
-0.0248
-0.0200
-0.0139
-0.0067
0.0013
0.0096
0.0180
0.0259
0.0328
0.0383
0.0418
0.0431
0.0418
0.0377
0.0309
0.0214
0.0097
-0.0037
-0.0181
-0.0327
-0.0465
-0.0584
-0.0673
-0.0722
-0.0723
-0.0667
-0.0549
-0.0368
-0.0125
0.0176
0.0526
0.0914
0.1324
0.1740
0.2143
0.2515
0.2836
0.3091
0.3266
0.3350
0.3337
0.3228
0.3331
0.3352
0.3276
0.3107
0.2854
0.2533
0.2160
0.1753
0.1333
0.0918
0.0526
0.0173
-0.0131
-0.0375
-0.0556
-0.0672
-0.0724
-0.0720
-0.0666
-0.0572
-0.0448
-0.0307
-0.0158
-0.0013
0.0121
0.0235
0.0326
0.0389
0.0424
0.0430
0.0410
0.0368
0.0307
0.0232
0.0149
0.0063
-0.0021
-0.0099
-0.0168
-0.0225
-0.0267
-0.0294
-0.0306
-0.0303
-0.0286
-0.0258
-0.0220
-0.0175
-0.0124
-0.0071
-0.0018
0.0034
0.0082
0.0125
0.0162
0.0192
0.0214
0.0229
0.0237
0.0237
0.0231
0.0220
0.0203
0.0182
0.0158
0.0131
0.0103
0.0073
0.0044
0.0016
-0.0012
-0.0038
-0.0063
-0.0085
-0.0106
-0.0124
-0.0140
-0.0153
-0.0164
-0.0174
-0.0181
-0.0186
-0.0190
-0.0193
-0.0194
-0.0195
-0.0194
-0.0193
-0.0191
-0.0189
-0.0187
-0.0184
-0.0182
-0.0179
-0.0177
-0.0175
-0.0173
-0.0172
-0.0171
-0.0170
-0.0170
-0.0170
-0.0171
-0.0172
-0.0173
-0.0175
-0.0177
-0.0179
-0.0182
-0.0184
-0.0187
-0.0189
-0.0191
-0.0193
-0.0194
-0.0195
-0.0194
-0.0193
-0.0190
-0.0186
-0.0181
-0.0174
-0.0164
-0.0153
-0.0140
-0.0124
-0.0106
-0.0085
-0.0063
-0.0038
-0.0012
0.0016
0.0044
0.0073
0.0103
0.0131
0.0158
0.0182
0.0203
0.0220
0.0231
0.0237
0.0237
0.0229
0.0214
0.0192
0.0162
0.0125
0.0082
0.0034
-0.0018
-0.0071
-0.0124
-0.0175
-0.0220
-0.0258
-0.0286
-0.0303
-0.0306
-0.0294
-0.0267
-0.0225
-0.0168
-0.0099
-0.0021
0.0063
0.0149
0.0232
0.0307
0.0368
0.0410
0.0430
0.0424
0.0389
0.0326
0.0235
0.0121
-0.0013
-0.0158
-0.0307
-0.0448
-0.0572
-0.0666
-0.0720
-0.0724
-0.0672
-0.0556
-0.0375
-0.0131
0.0173
0.0526
0.0918
0.1333
0.1753
0.2160
0.2533
0.2854
0.3107
0.3276
0.3352
0.3331
0.3355
0.3288
0.3126
0.2878
0.2559
0.2185
0.1776
0.1351
0.0932
0.0535
0.0176
-0.0131
-0.0378
-0.0559
-0.0675
-0.0725
-0.0718
-0.0660
-0.0562
-0.0435
-0.0290
-0.0139
0.0007
0.0140
0.0253
0.0340
0.0399
0.0427
0.0427
0.0401
0.0352
0.0286
0.0207
0.0121
0.0033
-0.0051
-0.0128
-0.0194
-0.0245
-0.0282
-0.0302
-0.0306
-0.0295
-0.0271
-0.0236
-0.0192
-0.0141
-0.0087
-0.0032
0.0022
0.0073
0.0118
0.0158
0.0190
0.0214
0.0229
0.0237
0.0237
0.0230
0.0216
0.0197
0.0174
0.0147
0.0118
0.0087
0.0055
0.0024
-0.0007
-0.0036
-0.0063
-0.0088
-0.0110
-0.0130
-0.0147
-0.0161
-0.0172
-0.0181
-0.0187
-0.0192
-0.0194
-0.0195
-0.0194
-0.0191
-0.0188
-0.0184
-0.0179
-0.0174
-0.0168
-0.0163
-0.0157
-0.0152
-0.0146
-0.0142
-0.0137
-0.0133
-0.0130
-0.0127
-0.0124
-0.0123
-0.0122
-0.0122
-0.0122
-0.0123
-0.0124
-0.0127
-0.0130
-0.0133
-0.0137
-0.0142
-0.0146
-0.0152
-0.0157
-0.0163
-0.0168
-0.0174
-0.0179
-0.0184
-0.0188
-0.0191
-0.0194
-0.0195
-0.0194
-0.0192
-0.0187
-0.0181
-0.0172
-0.0161
-0.0147
-0.0130
-0.0110
-0.0088
-0.0063
-0.0036
-0.0007
0.0024
0.0055
0.0087
0.0118
0.0147
0.0174
0.0197
0.0216
0.0230
0.0237
0.0237
0.0229
0.0214
0.0190
0.0158
0.0118
0.0073
0.0022
-0.0032
-0.0087
-0.0141
-0.0192
-0.0236
-0.0271
-0.0295
-0.0306
-0.0302
-0.0282
-0.0245
-0.0194
-0.0128
-0.0051
0.0033
0.0121
0.0207
0.0286
0.0352
0.0401
0.0427
0.0427
0.0399
0.0340
0.0253
0.0140
0.0007
-0.0139
-0.0290
-0.0435
-0.0562
-0.0660
-0.0718
-0.0725
-0.0675
-0.0559
-0.0378
-0.0131
0.0176
0.0535
0.0932
0.1351
0.1776
0.2185
0.2559
0.2878
0.3126
0.3288
0.3355
0.3301
0.3149
0.2907
0.2591
0.2218
0.1807
0.1379
0.0954
0.0551
0.0188
-0.0125
-0.0375
-0.0559
-0.0675
-0.0726
-0.0717
-0.0656
-0.0555
-0.0424
-0.0277
-0.0124
0.0023
0.0156
0.0267
0.0351
0.0406
0.0430
0.0424
0.0392
0.0338
0.0266
0.0183
0.0094
0.0005
-0.0079
-0.0153
-0.0215
-0.0262
-0.0292
-0.0306
-0.0303
-0.0285
-0.0254
-0.0212
-0.0163
-0.0108
-0.0052
0.0005
0.0058
0.0107
0.0150
0.0184
0.0211
0.0228
0.0237
0.0237
0.0230
0.0215
0.0194
0.0169
0.0140
0.0108
0.0075
0.0041
0.0008
-0.0024
-0.0054
-0.0082
-0.0107
-0.0129
-0.0148
-0.0163
-0.0175
-0.0184
-0.0190
-0.0194
-0.0195
-0.0193
-0.0190
-0.0185
-0.0179
-0.0172
-0.0164
-0.0155
-0.0146
-0.0137
-0.0128
-0.0120
-0.0111
-0.0103
-0.0095
-0.0088
-0.0082
-0.0076
-0.0071
-0.0066
-0.0063
-0.0060
-0.0058
-0.0057
-0.0056
-0.0057
-0.0058
-0.0060
-0.0063
-0.0066
-0.0071
-0.0076
-0.0082
-0.0088
-0.0095
-0.0103
-0.0111
-0.0120
-0.0128
-0.0137
-0.0146
-0.0155
-0.0164
-0.0172
-0.0179
-0.0185
-0.0190
-0.0193
-0.0195
-0.0194
-0.0190
-0.0184
-0.0175
-0.0163
-0.0148
-0.0129
-0.0107
-0.0082
-0.0054
-0.0024
0.0008
0.0041
0.0075
0.0108
0.0140
0.0169
0.0194
0.0215
0.0230
0.0237
0.0237
0.0228
0.0211
0.0184
0.0150
0.0107
0.0058
0.0005
-0.0052
-0.0108
-0.0163
-0.0212
-0.0254
-0.0285
-0.0303
-0.0306
-0.0292
-0.0262
-0.0215
-0.0153
-0.0079
0.0005
0.0094
0.0183
0.0266
0.0338
0.0392
0.0424
0.0430
0.0406
0.0351
0.0267
0.0156
0.0023
-0.0124
-0.0277
-0.0424
-0.0555
-0.0656
-0.0717
-0.0726
-0.0675
-0.0559
-0.0375
-0.0125
0.0188
0.0551
0.0954
0.1379
0.1807
0.2218
0.2591
0.2907
0.3149
0.3301
0.3174
0.2941
0.2630
0.2259
0.1847
0.1415
0.0986
0.0577
0.0206
-0.0112
-0.0368
-0.0556
-0.0675
-0.0726
-0.0716
-0.0654
-0.0551
-0.0418
-0.0268
-0.0113
0.0036
0.0169
0.0279
0.0360
0.0411
0.0431
0.0420
0.0383
0.0324
0.0248
0.0161
0.0070
-0.0019
-0.0102
-0.0175
-0.0233
-0.0275
-0.0299
-0.0306
-0.0297
-0.0272
-0.0235
-0.0188
-0.0134
-0.0076
-0.0018
0.0039
0.0091
0.0137
0.0176
0.0205
0.0225
0.0236
0.0238
0.0230
0.0216
0.0194
0.0167
0.0136
0.0103
0.0067
0.0032
-0.0004
-0.0037
-0.0068
-0.0097
-0.0122
-0.0143
-0.0161
-0.0175
-0.0185
-0.0191
-0.0194
-0.0194
-0.0192
-0.0187
-0.0180
-0.0171
-0.0161
-0.0150
-0.0138
-0.0126
-0.0113
-0.0101
-0.0089
-0.0077
-0.0066
-0.0055
-0.0045
-0.0035
-0.0026
-0.0019
-0.0012
-0.0005
0.0000
0.0005
0.0008
0.0011
0.0013
0.0014
0.0015
0.0014
0.0013
0.0011
0.0008
0.0005
0.0000
-0.0005
-0.0012
-0.0019
-0.0026
-0.0035
-0.0045
-0.0055
-0.0066
-0.0077
-0.0089
-0.0101
-0.0113
-0.0126
-0.0138
-0.0150
-0.0161
-0.0171
-0.0180
-0.0187
-0.0192
-0.0194
-0.0194
-0.0191
-0.0185
-0.0175
-0.0161
-0.0143
-0.0122
-0.0097
-0.0068
-0.0037
-0.0004
0.0032
0.0067
0.0103
0.0136
0.0167
0.0194
0.0216
0.0230
0.0238
0.0236
0.0225
0.0205
0.0176
0.0137
0.0091
0.0039
-0.0018
-0.0076
-0.0134
-0.0188
-0.0235
-0.0272
-0.0297
-0.0306
-0.0299
-0.0275
-0.0233
-0.0175
-0.0102
-0.0019
0.0070
0.0161
0.0248
0.0324
0.0383
0.0420
0.0431
0.0411
0.0360
0.0279
0.0169
0.0036
-0.0113
-0.0268
-0.0418
-0.0551
-0.0654
-0.0716
-0.0726
-0.0675
-0.0556
-0.0368
-0.0112
0.0206
0.0577
0.0986
0.1415
0.1847
0.2259
0.2630
0.2941
0.3174
0.2979
0.2675
0.2307
0.1895
0.1461
0.1026
0.0611
0.0233
-0.0093
-0.0355
-0.0549
-0.0672
-0.0725
-0.0717
-0.0654
-0.0549
-0.0414
-0.0262
-0.0105
0.0045
0.0178
0.0287
0.0367
0.0415
0.0431
0.0416
0.0375
0.0311
0.0231
0.0142
0.0049
-0.0041
-0.0123
-0.0193
-0.0248
-0.0285
-0.0304
-0.0305
-0.0289
-0.0258
-0.0215
-0.0163
-0.0106
-0.0046
0.0014
0.0070
0.0120
0.0163
0.0197
0.0220
0.0234
0.0238
0.0232
0.0218
0.0197
0.0169
0.0137
0.0101
0.0064
0.0026
-0.0010
-0.0045
-0.0078
-0.0107
-0.0132
-0.0153
-0.0170
-0.0182
-0.0190
-0.0194
-0.0194
-0.0191
-0.0185
-0.0176
-0.0166
-0.0153
-0.0140
-0.0125
-0.0110
-0.0094
-0.0078
-0.0063
-0.0048
-0.0034
-0.0020
-0.0007
0.0005
0.0016
0.0026
0.0035
0.0043
0.0051
0.0057
0.0063
0.0068
0.0072
0.0075
0.0078
0.0079
0.0080
0.0081
0.0080
0.0079
0.0078
0.0075
0.0072
0.0068
0.0063
0.0057
0.0051
0.0043
0.0035
0.0026
0.0016
0.0005
-0.0007
-0.0020
-0.0034
-0.0048
-0.0063
-0.0078
-0.0094
-0.0110
-0.0125
-0.0140
-0.0153
-0.0166
-0.0176
-0.0185
-0.0191
-0.0194
-0.0194
-0.0190
-0.0182
-0.0170
-0.0153
-0.0132
-0.0107
-0.0078
-0.0045
-0.0010
0.0026
0.0064
0.0101
0.0137
0.0169
0.0197
0.0218
0.0232
0.0238
0.0234
0.0220
0.0197
0.0163
0.0120
0.0070
0.0014
-0.0046
-0.0106
-0.0163
-0.0215
-0.0258
-0.0289
-0.0305
-0.0304
-0.0285
-0.0248
-0.0193
-0.0123
-0.0041
0.0049
0.0142
0.0231
0.0311
0.0375
0.0416
0.0431
0.0415
0.0367
0.0287
0.0178
0.0045
-0.0105
-0.0262
-0.0414
-0.0549
-0.0654
-0.0717
-0.0725
-0.0672
-0.0549
-0.0355
-0.0093
0.0233
0.0611
0.1026
0.1461
0.1895
0.2307
0.2675
0.2979
0.2726
0.2363
0.1952
0.1516
0.1076
0.0653
0.0267
-0.0067
-0.0338
-0.0538
-0.0667
-0.0724
-0.0718
-0.0656
-0.0551
-0.0414
-0.0260
-0.0101
0.0050
0.0184
0.0293
0.0372
0.0418
0.0431
0.0413
0.0367
0.0300
0.0217
0.0125
0.0031
-0.0060
-0.0141
-0.0209
-0.0260
-0.0292
-0.0306
-0.0301
-0.0279
-0.0243
-0.0195
-0.0140
-0.0079
-0.0017
0.0042
0.0097
0.0145
0.0184
0.0213
0.0231
0.0238
0.0235
0.0222
0.0202
0.0174
0.0141
0.0104
0.0065
0.0026
-0.0013
-0.0049
-0.0083
-0.0113
-0.0139
-0.0159
-0.0175
-0.0187
-0.0193
-0.0195
-0.0192
-0.0186
-0.0177
-0.0165
-0.0151
-0.0135
-0.0117
-0.0100
-0.0081
-0.0063
-0.0045
-0.0027
-0.0010
0.0006
0.0021
0.0035
0.0048
0.0060
0.0071
0.0081
0.0089
0.0097
0.0104
0.0110
0.0115
0.0119
0.0122
0.0125
0.0128
0.0129
0.0131
0.0131
0.0132
0.0131
0.0131
0.0129
0.0128
0.0125
0.0122
0.0119
0.0115
0.0110
0.0104
0.0097
0.0089
0.0081
0.0071
0.0060
0.0048
0.0035
0.0021
0.0006
-0.0010
-0.0027
-0.0045
-0.0063
-0.0081
-0.0100
-0.0117
-0.0135
-0.0151
-0.0165
-0.0177
-0.0186
-0.0192
-0.0195
-0.0193
-0.0187
-0.0175
-0.0159
-0.0139
-0.0113
-0.0083
-0.0049
-0.0013
0.0026
0.0065
0.0104
0.0141
0.0174
0.0202
0.0222
0.0235
0.0238
0.0231
0.0213
0.0184
0.0145
0.0097
0.0042
-0.0017
-0.0079
-0.0140
-0.0195
-0.0243
-0.0279
-0.0301
-0.0306
-0.0292
-0.0260
-0.0209
-0.0141
-0.0060
0.0031
0.0125
0.0217
0.0300
0.0367
0.0413
0.0431
0.0418
0.0372
0.0293
0.0184
0.0050
-0.0101
-0.0260
-0.0414
-0.0551
-0.0656
-0.0718
-0.0724
-0.0667
-0.0538
-0.0338
-0.0067
0.0267
0.0653
0.1076
0.1516
0.1952
0.2363
0.2726
0.2426
0.2017
0.1580
0.1135
0.0705
0.0310
-0.0034
-0.0314
-0.0524
-0.0659
-0.0723
-0.0720
-0.0660
-0.0555
-0.0418
-0.0262
-0.0101
0.0052
0.0187
0.0297
0.0375
0.0420
0.0430
0.0409
0.0361
0.0290
0.0205
0.0111
0.0015
-0.0076
-0.0156
-0.0221
-0.0269
-0.0298
-0.0307
-0.0296
-0.0269
-0.0228
-0.0176
-0.0117
-0.0054
0.0009
0.0068
0.0121
0.0166
0.0201
0.0224
0.0236
0.0237
0.0227
0.0209
0.0182
0.0149
0.0111
0.0071
0.0030
-0.0010
-0.0049
-0.0084
-0.0116
-0.0142
-0.0163
-0.0179
-0.0189
-0.0194
-0.0194
-0.0189
-0.0181
-0.0168
-0.0153
-0.0136
-0.0117
-0.0097
-0.0076
-0.0055
-0.0034
-0.0014
0.0006
0.0024
0.0041
0.0057
0.0072
0.0085
0.0097
0.0107
0.0116
0.0124
0.0131
0.0137
0.0142
0.0146
0.0149
0.0152
0.0154
0.0156
0.0157
0.0158
0.0159
0.0160
0.0160
0.0160
0.0160
0.0160
0.0159
0.0158
0.0157
0.0156
0.0154
0.0152