# vtk DataFile Version 1.0
2D Sin graph datase
ASCII

DATASET STRUCTURED_POINTS
DIMENSIONS 201 201 1
ORIGIN 0 0 0
SPACING 0.05 0.05 0.05

POINT_DATA 40401

SCALARS scalars float
LOOKUP_TABLE default
0.0335
0.0341
0.0319
0.0272
0.0202
0.0115
0.0018
-0.0084
-0.0181
-0.0268
-0.0337
-0.0383
-0.0403
-0.0396
-0.0361
-0.0300
-0.0218
-0.0119
-0.0009
0.0104
0.0213
0.0311
0.0393
0.0453
0.0487
0.0493
0.0471
0.0422
0.0347
0.0251
0.0140
0.0017
-0.0109
-0.0233
-0.0349
-0.0451
-0.0534
-0.0594
-0.0629
-0.0636
-0.0616
-0.0568
-0.0496
-0.0402
-0.0289
-0.0162
-0.0026
0.0115
0.0256
0.0391
0.0517
0.0629
0.0725
0.0801
0.0855
0.0887
0.0895
0.0880
0.0842
0.0783
0.0705
0.0610
0.0499
0.0376
0.0244
0.0105
-0.0038
-0.0183
-0.0327
-0.0468
-0.0603
-0.0732
-0.0853
-0.0965
-0.1067
-0.1158
-0.1238
-0.1307
-0.1365
-0.1413
-0.1450
-0.1479
-0.1498
-0.1510
-0.1515
-0.1513
-0.1507
-0.1496
-0.1482
-0.1465
-0.1447
-0.1428
-0.1409
-0.1390
-0.1373
-0.1358
-0.1344
-0.1334
-0.1326
-0.1321
-0.1319
-0.1321
-0.1326
-0.1334
-0.1344
-0.1358
-0.1373
-0.1390
-0.1409
-0.1428
-0.1447
-0.1465
-0.1482
-0.1496
-0.1507
-0.1513
-0.1515
-0.1510
-0.1498
-0.1479
-0.1450
-0.1413
-0.1365
-0.1307
-0.1238
-0.1158
-0.1067
-0.0965
-0.0853
-0.0732
-0.0603
-0.0468
-0.0327
-0.0183
-0.0038
0.0105
0.0244
0.0376
0.0499
0.0610
0.0705
0.0783
0.0842
0.0880
0.0895
0.0887
0.0855
0.0801
0.0725
0.0629
0.0517
0.0391
0.0256
0.0115
-0.0026
-0.0162
-0.0289
-0.0402
-0.0496
-0.0568
-0.0616
-0.0636
-0.0629
-0.0594
-0.0534
-0.0451
-0.0349
-0.0233
-0.0109
0.0017
0.0140
0.0251
0.0347
0.0422
0.0471
0.0493
0.0487
0.0453
0.0393
0.0311
0.0213
0.0104
-0.0009
-0.0119
-0.0218
-0.0300
-0.0361
-0.0396
-0.0403
-0.0383
-0.0337
-0.0268
-0.0181
-0.0084
0.0018
0.0115
0.0202
0.0272
0.0319
0.0341
0.0335
0.0341
0.0319
0.0271
0.0200
0.0111
0.0012
-0.0090
-0.0188
-0.0274
-0.0342
-0.0387
-0.0404
-0.0393
-0.0353
-0.0288
-0.0201
-0.0098
0.0014
0.0128
0.0237
0.0334
0.0411
0.0465
0.0492
0.0489
0.0457
0.0398
0.0313
0.0209
0.0090
-0.0038
-0.0166
-0.0290
-0.0402
-0.0497
-0.0570
-0.0617
-0.0636
-0.0626
-0.0588
-0.0522
-0.0431
-0.0320
-0.0192
-0.0053
0.0093
0.0239
0.0380
0.0511
0.0628
0.0728
0.0806
0.0860
0.0890
0.0894
0.0872
0.0825
0.0756
0.0665
0.0556
0.0430
0.0292
0.0145
-0.0009
-0.0166
-0.0323
-0.0477
-0.0626
-0.0767
-0.0899
-0.1020
-0.1128
-0.1224
-0.1305
-0.1373
-0.1427
-0.1468
-0.1496
-0.1511
-0.1515
-0.1508
-0.1492
-0.1468
-0.1437
-0.1400
-0.1359
-0.1314
-0.1268
-0.1220
-0.1172
-0.1124
-0.1079
-0.1036
-0.0997
-0.0962
-0.0931
-0.0905
-0.0884
-0.0869
-0.0860
-0.0857
-0.0860
-0.0869
-0.0884
-0.0905
-0.0931
-0.0962
-0.0997
-0.1036
-0.1079
-0.1124
-0.1172
-0.1220
-0.1268
-0.1314
-0.1359
-0.1400
-0.1437
-0.1468
-0.1492
-0.1508
-0.1515
-0.1511
-0.1496
-0.1468
-0.1427
-0.1373
-0.1305
-0.1224
-0.1128
-0.1020
-0.0899
-0.0767
-0.0626
-0.0477
-0.0323
-0.0166
-0.0009
0.0145
0.0292
0.0430
0.0556
0.0665
0.0756
0.0825
0.0872
0.0894
0.0890
0.0860
0.0806
0.0728
0.0628
0.0511
0.0380
0.0239
0.0093
-0.0053
-0.0192
-0.0320
-0.0431
-0.0522
-0.0588
-0.0626
-0.0636
-0.0617
-0.0570
-0.0497
-0.0402
-0.0290
-0.0166
-0.0038
0.0090
0.0209
0.0313
0.0398
0.0457
0.0489
0.0492
0.0465
0.0411
0.0334
0.0237
0.0128
0.0014
-0.0098
-0.0201
-0.0288
-0.0353
-0.0393
-0.0404
-0.0387
-0.0342
-0.0274
-0.0188
-0.0090
0.0012
0.0111
0.0200
0.0271
0.0319
0.0341
0.0319
0.0271
0.0199
0.0109
0.0009
-0.0094
-0.0193
-0.0279
-0.0347
-0.0389
-0.0404
-0.0390
-0.0346
-0.0277
-0.0186
-0.0080
0.0035
0.0150
0.0259
0.0353
0.0427
0.0475
0.0494
0.0483
0.0442
0.0373
0.0280
0.0167
0.0042
-0.0089
-0.0220
-0.0342
-0.0449
-0.0536
-0.0598
-0.0631
-0.0634
-0.0607
-0.0551
-0.0467
-0.0359
-0.0232
-0.0092
0.0057
0.0208
0.0355
0.0493
0.0617
0.0721
0.0804
0.0861
0.0891
0.0893
0.0867
0.0814
0.0735
0.0634
0.0513
0.0375
0.0223
0.0062
-0.0105
-0.0274
-0.0441
-0.0603
-0.0758
-0.0903
-0.1035
-0.1153
-0.1255
-0.1340
-0.1409
-0.1460
-0.1494
-0.1512
-0.1514
-0.1501
-0.1474
-0.1435
-0.1385
-0.1326
-0.1258
-0.1185
-0.1106
-0.1023
-0.0939
-0.0854
-0.0770
-0.0687
-0.0607
-0.0531
-0.0459
-0.0393
-0.0333
-0.0280
-0.0234
-0.0196
-0.0166
-0.0145
-0.0132
-0.0127
-0.0132
-0.0145
-0.0166
-0.0196
-0.0234
-0.0280
-0.0333
-0.0393
-0.0459
-0.0531
-0.0607
-0.0687
-0.0770
-0.0854
-0.0939
-0.1023
-0.1106
-0.1185
-0.1258
-0.1326
-0.1385
-0.1435
-0.1474
-0.1501
-0.1514
-0.1512
-0.1494
-0.1460
-0.1409
-0.1340
-0.1255
-0.1153
-0.1035
-0.0903
-0.0758
-0.0603
-0.0441
-0.0274
-0.0105
0.0062
0.0223
0.0375
0.0513
0.0634
0.0735
0.0814
0.0867
0.0893
0.0891
0.0861
0.0804
0.0721
0.0617
0.0493
0.0355
0.0208
0.0057
-0.0092
-0.0232
-0.0359
-0.0467
-0.0551
-0.0607
-0.0634
-0.0631
-0.0598
-0.0536
-0.0449
-0.0342
-0.0220
-0.0089
0.0042
0.0167
0.0280
0.0373
0.0442
0.0483
0.0494
0.0475
0.0427
0.0353
0.0259
0.0150
0.0035
-0.0080
-0.0186
-0.0277
-0.0346
-0.0390
-0.0404
-0.0389
-0.0347
-0.0279
-0.0193
-0.0094
0.0009
0.0109
0.0199
0.0271
0.0319
0.0272
0.0200
0.0109
0.0008
-0.0096
-0.0196
-0.0283
-0.0350
-0.0391
-0.0404
-0.0387
-0.0340
-0.0267
-0.0173
-0.0064
0.0053
0.0169
0.0277
0.0369
0.0439
0.0482
0.0494
0.0475
0.0426
0.0348
0.0246
0.0127
-0.0004
-0.0138
-0.0268
-0.0387
-0.0489
-0.0567
-0.0617
-0.0637
-0.0624
-0.0580
-0.0506
-0.0405
-0.0282
-0.0143
0.0008
0.0164
0.0317
0.0462
0.0594
0.0706
0.0794
0.0857
0.0890
0.0893
0.0865
0.0809
0.0724
0.0615
0.0483
0.0334
0.0171
-0.0002
-0.0181
-0.0360
-0.0537
-0.0706
-0.0866
-0.1012
-0.1142
-0.1255
-0.1348
-0.1421
-0.1473
-0.1504
-0.1515
-0.1506
-0.1478
-0.1432
-0.1370
-0.1294
-0.1205
-0.1106
-0.0997
-0.0881
-0.0760
-0.0635
-0.0508
-0.0381
-0.0255
-0.0132
-0.0012
0.0103
0.0212
0.0314
0.0409
0.0495
0.0573
0.0641
0.0699
0.0748
0.0785
0.0812
0.0829
0.0834
0.0829
0.0812
0.0785
0.0748
0.0699
0.0641
0.0573
0.0495
0.0409
0.0314
0.0212
0.0103
-0.0012
-0.0132
-0.0255
-0.0381
-0.0508
-0.0635
-0.0760
-0.0881
-0.0997
-0.1106
-0.1205
-0.1294
-0.1370
-0.1432
-0.1478
-0.1506
-0.1515
-0.1504
-0.1473
-0.1421
-0.1348
-0.1255
-0.1142
-0.1012
-0.0866
-0.0706
-0.0537
-0.0360
-0.0181
-0.0002
0.0171
0.0334
0.0483
0.0615
0.0724
0.0809
0.0865
0.0893
0.0890
0.0857
0.0794
0.0706
0.0594
0.0462
0.0317
0.0164
0.0008
-0.0143
-0.0282
-0.0405
-0.0506
-0.0580
-0.0624
-0.0637
-0.0617
-0.0567
-0.0489
-0.0387
-0.0268
-0.0138
-0.0004
0.0127
0.0246
0.0348
0.0426
0.0475
0.0494
0.0482
0.0439
0.0369
0.0277
0.0169
0.0053
-0.0064
-0.0173
-0.0267
-0.0340
-0.0387
-0.0404
-0.0391
-0.0350
-0.0283
-0.0196
-0.0096
0.0008
0.0109
0.0200
0.0272
0.0202
0.0111
0.0009
-0.0096
-0.0197
-0.0284
-0.0351
-0.0392
-0.0404
-0.0385
-0.0336
-0.0260
-0.0162
-0.0050
0.0068
0.0186
0.0293
0.0383
0.0449
0.0487
0.0493
0.0466
0.0409
0.0323
0.0214
0.0089
-0.0046
-0.0182
-0.0312
-0.0427
-0.0522
-0.0591
-0.0629
-0.0635
-0.0607
-0.0546
-0.0456
-0.0340
-0.0203
-0.0053
0.0106
0.0265
0.0418
0.0558
0.0680
0.0777
0.0847
0.0887
0.0894
0.0868
0.0811
0.0723
0.0608
0.0469
0.0311
0.0137
-0.0047
-0.0236
-0.0425
-0.0610
-0.0786
-0.0949
-0.1096
-0.1224
-0.1330
-0.1413
-0.1472
-0.1505
-0.1515
-0.1499
-0.1461
-0.1400
-0.1319
-0.1220
-0.1103
-0.0973
-0.0830
-0.0677
-0.0516
-0.0349
-0.0179
-0.0007
0.0164
0.0334
0.0501
0.0662
0.0818
0.0966
0.1107
0.1239
0.1361
0.1472
0.1574
0.1664
0.1742
0.1809
0.1864
0.1907
0.1938
0.1956
0.1963
0.1956
0.1938
0.1907
0.1864
0.1809
0.1742
0.1664
0.1574
0.1472
0.1361
0.1239
0.1107
0.0966
0.0818
0.0662
0.0501
0.0334
0.0164
-0.0007
-0.0179
-0.0349
-0.0516
-0.0677
-0.0830
-0.0973
-0.1103
-0.1220
-0.1319
-0.1400
-0.1461
-0.1499
-0.1515
-0.1505
-0.1472
-0.1413
-0.1330
-0.1224
-0.1096
-0.0949
-0.0786
-0.0610
-0.0425
-0.0236
-0.0047
0.0137
0.0311
0.0469
0.0608
0.0723
0.0811
0.0868
0.0894
0.0887
0.0847
0.0777
0.0680
0.0558
0.0418
0.0265
0.0106
-0.0053
-0.0203
-0.0340
-0.0456
-0.0546
-0.0607
-0.0635
-0.0629
-0.0591
-0.0522
-0.0427
-0.0312
-0.0182
-0.0046
0.0089
0.0214
0.0323
0.0409
0.0466
0.0493
0.0487
0.0449
0.0383
0.0293
0.0186
0.0068
-0.0050
-0.0162
-0.0260
-0.0336
-0.0385
-0.0404
-0.0392
-0.0351
-0.0284
-0.0197
-0.0096
0.0009
0.0111
0.0202
0.0115
0.0012
-0.0094
-0.0196
-0.0284
-0.0352
-0.0393
-0.0404
-0.0383
-0.0332
-0.0254
-0.0154
-0.0040
0.0081
0.0199
0.0306
0.0394
0.0457
0.0490
0.0490
0.0457
0.0392
0.0299
0.0184
0.0054
-0.0085
-0.0222
-0.0351
-0.0462
-0.0550
-0.0609
-0.0636
-0.0627
-0.0584
-0.0508
-0.0403
-0.0273
-0.0124
0.0036
0.0200
0.0360
0.0510
0.0642
0.0751
0.0832
0.0880
0.0895
0.0875
0.0820
0.0732
0.0615
0.0471
0.0305
0.0123
-0.0070
-0.0269
-0.0468
-0.0661
-0.0843
-0.1010
-0.1158
-0.1283
-0.1383
-0.1455
-0.1500
-0.1515
-0.1501
-0.1459
-0.1390
-0.1296
-0.1178
-0.1039
-0.0881
-0.0707
-0.0519
-0.0321
-0.0114
0.0098
0.0314
0.0532
0.0748
0.0961
0.1170
0.1372
0.1568
0.1754
0.1932
0.2099
0.2255
0.2400
0.2532
0.2653
0.2761
0.2857
0.2940
0.3010
0.3068
0.3113
0.3145
0.3164
0.3170
0.3164
0.3145
0.3113
0.3068
0.3010
0.2940
0.2857
0.2761
0.2653
0.2532
0.2400
0.2255
0.2099
0.1932
0.1754
0.1568
0.1372
0.1170
0.0961
0.0748
0.0532
0.0314
0.0098
-0.0114
-0.0321
-0.0519
-0.0707
-0.0881
-0.1039
-0.1178
-0.1296
-0.1390
-0.1459
-0.1501
-0.1515
-0.1500
-0.1455
-0.1383
-0.1283
-0.1158
-0.1010
-0.0843
-0.0661
-0.0468
-0.0269
-0.0070
0.0123
0.0305
0.0471
0.0615
0.0732
0.0820
0.0875
0.0895
0.0880
0.0832
0.0751
0.0642
0.0510
0.0360
0.0200
0.0036
-0.0124
-0.0273
-0.0403
-0.0508
-0.0584
-0.0627
-0.0636
-0.0609
-0.0550
-0.0462
-0.0351
-0.0222
-0.0085
0.0054
0.0184
0.0299
0.0392
0.0457
0.0490
0.0490
0.0457
0.0394
0.0306
0.0199
0.0081
-0.0040
-0.0154
-0.0254
-0.0332
-0.0383
-0.0404
-0.0393
-0.0352
-0.0284
-0.0196
-0.0094
0.0012
0.0115
0.0018
-0.0090
-0.0193
-0.0283
-0.0351
-0.0393
-0.0404
-0.0382
-0.0330
-0.0250
-0.0148
-0.0032
0.0091
0.0209
0.0316
0.0403
0.0463
0.0492
0.0487
0.0448
0.0377
0.0277
0.0156
0.0021
-0.0120
-0.0258
-0.0385
-0.0492
-0.0573
-0.0622
-0.0637
-0.0615
-0.0557
-0.0467
-0.0347
-0.0205
-0.0046
0.0121
0.0288
0.0447
0.0591
0.0713
0.0807
0.0868
0.0894
0.0883
0.0835
0.0751
0.0634
0.0488
0.0318
0.0129
-0.0073
-0.0280
-0.0488
-0.0689
-0.0878
-0.1050
-0.1200
-0.1323
-0.1418
-0.1481
-0.1512
-0.1509
-0.1473
-0.1405
-0.1306
-0.1178
-0.1023
-0.0845
-0.0646
-0.0428
-0.0196
0.0048
0.0300
0.0557
0.0818
0.1079
0.1337
0.1592
0.1840
0.2080
0.2311
0.2532
0.2742
0.2940
0.3126
0.3298
0.3457
0.3604
0.3736
0.3856
0.3962
0.4056
0.4136
0.4204
0.4259
0.4302
0.4332
0.4350
0.4356
0.4350
0.4332
0.4302
0.4259
0.4204
0.4136
0.4056
0.3962
0.3856
0.3736
0.3604
0.3457
0.3298
0.3126
0.2940
0.2742
0.2532
0.2311
0.2080
0.1840
0.1592
0.1337
0.1079
0.0818
0.0557
0.0300
0.0048
-0.0196
-0.0428
-0.0646
-0.0845
-0.1023
-0.1178
-0.1306
-0.1405
-0.1473
-0.1509
-0.1512
-0.1481
-0.1418
-0.1323
-0.1200
-0.1050
-0.0878
-0.0689
-0.0488
-0.0280
-0.0073
0.0129
0.0318
0.0488
0.0634
0.0751
0.0835
0.0883
0.0894
0.0868
0.0807
0.0713
0.0591
0.0447
0.0288
0.0121
-0.0046
-0.0205
-0.0347
-0.0467
-0.0557
-0.0615
-0.0637
-0.0622
-0.0573
-0.0492
-0.0385
-0.0258
-0.0120
0.0021
0.0156
0.0277
0.0377
0.0448
0.0487
0.0492
0.0463
0.0403
0.0316
0.0209
0.0091
-0.0032
-0.0148
-0.0250
-0.0330
-0.0382
-0.0404
-0.0393
-0.0351
-0.0283
-0.0193
-0.0090
0.0018
-0.0084
-0.0188
-0.0279
-0.0350
-0.0392
-0.0404
-0.0382
-0.0329
-0.0248
-0.0144
-0.0026
0.0097
0.0217
0.0324
0.0410
0.0468
0.0494
0.0484
0.0439
0.0362
0.0257
0.0131
-0.0008
-0.0152
-0.0290
-0.0415
-0.0517
-0.0591
-0.0631
-0.0633
-0.0599
-0.0527
-0.0423
-0.0291
-0.0138
0.0029
0.0201
0.0369
0.0526
0.0662
0.0771
0.0848
0.0889
0.0891
0.0854
0.0777
0.0665
0.0520
0.0348
0.0155
-0.0053
-0.0269
-0.0486
-0.0696
-0.0893
-0.1070
-0.1224
-0.1348
-0.1439
-0.1496
-0.1515
-0.1496
-0.1440
-0.1347
-0.1220
-0.1059
-0.0869
-0.0652
-0.0413
-0.0153
0.0122
0.0409
0.0705
0.1006
0.1308
0.1609
0.1907
0.2199
0.2482
0.2755
0.3017
0.3266
0.3502
0.3724
0.3931
0.4124
0.4302
0.4465
0.4614
0.4749
0.4870
0.4978
0.5073
0.5155
0.5226
0.5285
0.5332
0.5369
0.5395
0.5411
0.5416
0.5411
0.5395
0.5369
0.5332
0.5285
0.5226
0.5155
0.5073
0.4978
0.4870
0.4749
0.4614
0.4465
0.4302
0.4124
0.3931
0.3724
0.3502
0.3266
0.3017
0.2755
0.2482
0.2199
0.1907
0.1609
0.1308
0.1006
0.0705
0.0409
0.0122
-0.0153
-0.0413
-0.0652
-0.0869
-0.1059
-0.1220
-0.1347
-0.1440
-0.1496
-0.1515
-0.1496
-0.1439
-0.1348
-0.1224
-0.1070
-0.0893
-0.0696
-0.0486
-0.0269
-0.0053
0.0155
0.0348
0.0520
0.0665
0.0777
0.0854
0.0891
0.0889
0.0848
0.0771
0.0662
0.0526
0.0369
0.0201
0.0029
-0.0138
-0.0291
-0.0423
-0.0527
-0.0599
-0.0633
-0.0631
-0.0591
-0.0517
-0.0415
-0.0290
-0.0152
-0.0008
0.0131
0.0257
0.0362
0.0439
0.0484
0.0494
0.0468
0.0410
0.0324
0.0217
0.0097
-0.0026
-0.0144
-0.0248
-0.0329
-0.0382
-0.0404
-0.0392
-0.0350
-0.0279
-0.0188
-0.0084
-0.0181
-0.0274
-0.0347
-0.0391
-0.0404
-0.0383
-0.0330
-0.0248
-0.0143
-0.0023
0.0102
0.0222
0.0330
0.0415
0.0471
0.0494
0.0481
0.0432
0.0350
0.0240
0.0109
-0.0034
-0.0179
-0.0318
-0.0440
-0.0538
-0.0605
-0.0635
-0.0627
-0.0580
-0.0496
-0.0379
-0.0236
-0.0073
0.0101
0.0276
0.0443
0.0595
0.0721
0.0817
0.0876
0.0895
0.0873
0.0809
0.0705
0.0566
0.0395
0.0200
-0.0013
-0.0236
-0.0461
-0.0680
-0.0886
-0.1072
-0.1232
-0.1359
-0.1450
-0.1503
-0.1514
-0.1482
-0.1409
-0.1294
-0.1141
-0.0950
-0.0727
-0.0474
-0.0196
0.0103
0.0419
0.0748
0.1084
0.1425
0.1767
0.2105
0.2437
0.2761
0.3074
0.3375
0.3661
0.3931
0.4185
0.4423
0.4643
0.4847
0.5034
0.5204
0.5359
0.5498
0.5623
0.5734
0.5832
0.5918
0.5993
0.6057
0.6111
0.6155
0.6191
0.6218
0.6237
0.6249
0.6253
0.6249
0.6237
0.6218
0.6191
0.6155
0.6111
0.6057
0.5993
0.5918
0.5832
0.5734
0.5623
0.5498
0.5359
0.5204
0.5034
0.4847
0.4643
0.4423
0.4185
0.3931
0.3661
0.3375
0.3074
0.2761
0.2437
0.2105
0.1767
0.1425
0.1084
0.0748
0.0419
0.0103
-0.0196
-0.0474
-0.0727
-0.0950
-0.1141
-0.1294
-0.1409
-0.1482
-0.1514
-0.1503
-0.1450
-0.1359
-0.1232
-0.1072
-0.0886
-0.0680
-0.0461
-0.0236
-0.0013
0.0200
0.0395
0.0566
0.0705
0.0809
0.0873
0.0895
0.0876
0.0817
0.0721
0.0595
0.0443
0.0276
0.0101
-0.0073
-0.0236
-0.0379
-0.0496
-0.0580
-0.0627
-0.0635
-0.0605
-0.0538
-0.0440
-0.0318
-0.0179
-0.0034
0.0109
0.0240
0.0350
0.0432
0.0481
0.0494
0.0471
0.0415
0.0330
0.0222
0.0102
-0.0023
-0.0143
-0.0248
-0.0330
-0.0383
-0.0404
-0.0391
-0.0347
-0.0274
-0.0181
-0.0268
-0.0342
-0.0389
-0.0404
-0.0385
-0.0332
-0.0250
-0.0144
-0.0023
0.0103
0.0225
0.0333
0.0418
0.0474
0.0494
0.0478
0.0425
0.0339
0.0224
0.0090
-0.0056
-0.0203
-0.0342
-0.0462
-0.0555
-0.0615
-0.0637
-0.0618
-0.0560
-0.0464
-0.0336
-0.0182
-0.0011
0.0168
0.0345
0.0510
0.0655
0.0770
0.0851
0.0891
0.0888
0.0841
0.0751
0.0621
0.0456
0.0263
0.0048
-0.0181
-0.0414
-0.0643
-0.0860
-0.1056
-0.1224
-0.1358
-0.1453
-0.1505
-0.1512
-0.1472
-0.1385
-0.1253
-0.1077
-0.0860
-0.0607
-0.0321
-0.0007
0.0329
0.0683
0.1050
0.1425
0.1803
0.2180
0.2551
0.2915
0.3266
0.3604
0.3925
0.4228
0.4513
0.4778
0.5022
0.5247
0.5452
0.5638
0.5804
0.5954
0.6086
0.6203
0.6305
0.6394
0.6470
0.6536
0.6592
0.6639
0.6677
0.6709
0.6735
0.6755
0.6770
0.6780
0.6787
0.6789
0.6787
0.6780
0.6770
0.6755
0.6735
0.6709
0.6677
0.6639
0.6592
0.6536
0.6470
0.6394
0.6305
0.6203
0.6086
0.5954
0.5804
0.5638
0.5452
0.5247
0.5022
0.4778
0.4513
0.4228
0.3925
0.3604
0.3266
0.2915
0.2551
0.2180
0.1803
0.1425
0.1050
0.0683
0.0329
-0.0007
-0.0321
-0.0607
-0.0860
-0.1077
-0.1253
-0.1385
-0.1472
-0.1512
-0.1505
-0.1453
-0.1358
-0.1224
-0.1056
-0.0860
-0.0643
-0.0414
-0.0181
0.0048
0.0263
0.0456
0.0621
0.0751
0.0841
0.0888
0.0891
0.0851
0.0770
0.0655
0.0510
0.0345
0.0168
-0.0011
-0.0182
-0.0336
-0.0464
-0.0560
-0.0618
-0.0637
-0.0615
-0.0555
-0.0462
-0.0342
-0.0203
-0.0056
0.0090
0.0224
0.0339
0.0425
0.0478
0.0494
0.0474
0.0418
0.0333
0.0225
0.0103
-0.0023
-0.0144
-0.0250
-0.0332
-0.0385
-0.0404
-0.0389
-0.0342
-0.0268
-0.0337
-0.0387
-0.0404
-0.0387
-0.0336
-0.0254
-0.0148
-0.0026
0.0102
0.0225
0.0334
0.0420
0.0475
0.0494
0.0476
0.0420
0.0330
0.0212
0.0074
-0.0075
-0.0223
-0.0361
-0.0479
-0.0569
-0.0622
-0.0636
-0.0608
-0.0539
-0.0433
-0.0294
-0.0132
0.0046
0.0229
0.0407
0.0569
0.0706
0.0810
0.0874
0.0895
0.0870
0.0799
0.0684
0.0529
0.0341
0.0127
-0.0105
-0.0345
-0.0584
-0.0811
-0.1020
-0.1200
-0.1344
-0.1447
-0.1504
-0.1512
-0.1468
-0.1373
-0.1228
-0.1034
-0.0795
-0.0516
-0.0200
0.0145
0.0516
0.0906
0.1308
0.1718
0.2130
0.2539
0.2940
0.3330
0.3705
0.4062
0.4399
0.4714
0.5006
0.5274
0.5518
0.5739
0.5936
0.6111
0.6264
0.6397
0.6511
0.6609
0.6690
0.6757
0.6812
0.6856
0.6890
0.6916
0.6936
0.6950
0.6959
0.6966
0.6969
0.6972
0.6973
0.6973
0.6973
0.6973
0.6973
0.6973
0.6973
0.6972
0.6969
0.6966
0.6959
0.6950
0.6936
0.6916
0.6890
0.6856
0.6812
0.6757
0.6690
0.6609
0.6511
0.6397
0.6264
0.6111
0.5936
0.5739
0.5518
0.5274
0.5006
0.4714
0.4399
0.4062
0.3705
0.3330
0.2940
0.2539
0.2130
0.1718
0.1308
0.0906
0.0516
0.0145
-0.0200
-0.0516
-0.0795
-0.1034
-0.1228
-0.1373
-0.1468
-0.1512
-0.1504
-0.1447
-0.1344
-0.1200
-0.1020
-0.0811
-0.0584
-0.0345
-0.0105
0.0127
0.0341
0.0529
0.0684
0.0799
0.0870
0.0895
0.0874
0.0810
0.0706
0.0569
0.0407
0.0229
0.0046
-0.0132
-0.0294
-0.0433
-0.0539
-0.0608
-0.0636
-0.0622
-0.0569
-0.0479
-0.0361
-0.0223
-0.0075
0.0074
0.0212
0.0330
0.0420
0.0476
0.0494
0.0475
0.0420
0.0334
0.0225
0.0102
-0.0026
-0.0148
-0.0254
-0.0336
-0.0387
-0.0404
-0.0387
-0.0337
-0.0383
-0.0404
-0.0390
-0.0340
-0.0260
-0.0154
-0.0032
0.0097
0.0222
0.0333
0.0420
0.0475
0.0494
0.0475
0.0416
0.0324
0.0203
0.0062
-0.0089
-0.0239
-0.0378
-0.0494
-0.0580
-0.0628
-0.0634
-0.0598
-0.0519
-0.0403
-0.0255
-0.0084
0.0099
0.0285
0.0462
0.0620
0.0748
0.0840
0.0888
0.0890
0.0843
0.0748
0.0610
0.0432
0.0223
-0.0009
-0.0254
-0.0501
-0.0741
-0.0963
-0.1158
-0.1316
-0.1432
-0.1499
-0.1513
-0.1472
-0.1374
-0.1222
-0.1016
-0.0760
-0.0459
-0.0118
0.0256
0.0657
0.1079
0.1514
0.1956
0.2400
0.2838
0.3266
0.3680
0.4074
0.4447
0.4795
0.5117
0.5411
0.5676
0.5914
0.6123
0.6305
0.6461
0.6592
0.6700
0.6787
0.6854
0.6904
0.6939
0.6961
0.6971
0.6972
0.6966
0.6954
0.6937
0.6918
0.6897
0.6876
0.6855
0.6836
0.6820
0.6807
0.6797
0.6791
0.6789
0.6791
0.6797
0.6807
0.6820
0.6836
0.6855
0.6876
0.6897
0.6918
0.6937
0.6954
0.6966
0.6972
0.6971
0.6961
0.6939
0.6904
0.6854
0.6787
0.6700
0.6592
0.6461
0.6305
0.6123
0.5914
0.5676
0.5411
0.5117
0.4795
0.4447
0.4074
0.3680
0.3266
0.2838
0.2400
0.1956
0.1514
0.1079
0.0657
0.0256
-0.0118
-0.0459
-0.0760
-0.1016
-0.1222
-0.1374
-0.1472
-0.1513
-0.1499
-0.1432
-0.1316
-0.1158
-0.0963
-0.0741
-0.0501
-0.0254
-0.0009
0.0223
0.0432
0.0610
0.0748
0.0843
0.0890
0.0888
0.0840
0.0748
0.0620
0.0462
0.0285
0.0099
-0.0084
-0.0255
-0.0403
-0.0519
-0.0598
-0.0634
-0.0628
-0.0580
-0.0494
-0.0378
-0.0239
-0.0089
0.0062
0.0203
0.0324
0.0416
0.0475
0.0494
0.0475
0.0420
0.0333
0.0222
0.0097
-0.0032
-0.0154
-0.0260
-0.0340
-0.0390
-0.0404
-0.0383
-0.0403
-0.0393
-0.0346
-0.0267
-0.0162
-0.0040
0.0091
0.0217
0.0330
0.0418
0.0475
0.0494
0.0474
0.0415
0.0320
0.0196
0.0053
-0.0101
-0.0252
-0.0390
-0.0505
-0.0588
-0.0631
-0.0631
-0.0587
-0.0500
-0.0375
-0.0219
-0.0041
0.0148
0.0335
0.0511
0.0664
0.0783
0.0862
0.0895
0.0877
0.0809
0.0692
0.0531
0.0332
0.0105
-0.0142
-0.0396
-0.0648
-0.0884
-0.1096
-0.1273
-0.1406
-0.1488
-0.1515
-0.1482
-0.1389
-0.1235
-0.1023
-0.0757
-0.0440
-0.0079
0.0319
0.0748
0.1198
0.1664
0.2136
0.2609
0.3074
0.3527
0.3962
0.4374
0.4760
0.5117
0.5442
0.5734
0.5993
0.6218
0.6411
0.6572
0.6702
0.6804
0.6880
0.6932
0.6962
0.6973
0.6967
0.6947
0.6915
0.6874
0.6826
0.6772
0.6715
0.6656
0.6597
0.6540
0.6485
0.6435
0.6389
0.6349
0.6315
0.6288
0.6268
0.6257
0.6253
0.6257
0.6268
0.6288
0.6315
0.6349
0.6389
0.6435
0.6485
0.6540
0.6597
0.6656
0.6715
0.6772
0.6826
0.6874
0.6915
0.6947
0.6967
0.6973
0.6962
0.6932
0.6880
0.6804
0.6702
0.6572
0.6411
0.6218
0.5993
0.5734
0.5442
0.5117
0.4760
0.4374
0.3962
0.3527
0.3074
0.2609
0.2136
0.1664
0.1198
0.0748
0.0319
-0.0079
-0.0440
-0.0757
-0.1023
-0.1235
-0.1389
-0.1482
-0.1515
-0.1488
-0.1406
-0.1273
-0.1096
-0.0884
-0.0648
-0.0396
-0.0142
0.0105
0.0332
0.0531
0.0692
0.0809
0.0877
0.0895
0.0862
0.0783
0.0664
0.0511
0.0335
0.0148
-0.0041
-0.0219
-0.0375
-0.0500
-0.0587
-0.0631
-0.0631
-0.0588
-0.0505
-0.0390
-0.0252
-0.0101
0.0053
0.0196
0.0320
0.0415
0.0474
0.0494
0.0475
0.0418
0.0330
0.0217
0.0091
-0.0040
-0.0162
-0.0267
-0.0346
-0.0393
-0.0403
-0.0396
-0.0353
-0.0277
-0.0173
-0.0050
0.0081
0.0209
0.0324
0.0415
0.0474
0.0494
0.0475
0.0415
0.0319
0.0193
0.0047
-0.0108
-0.0261
-0.0400
-0.0514
-0.0594
-0.0634
-0.0628
-0.0577
-0.0482
-0.0349
-0.0186
-0.0002
0.0190
0.0380
0.0554
0.0701
0.0812
0.0878
0.0894
0.0858
0.0770
0.0632
0.0450
0.0233
-0.0011
-0.0269
-0.0530
-0.0782
-0.1012
-0.1209
-0.1364
-0.1467
-0.1513
-0.1496
-0.1415
-0.1268
-0.1057
-0.0786
-0.0459
-0.0083
0.0334
0.0785
0.1262
0.1754
0.2255
0.2755
0.3247
0.3724
0.4179
0.4608
0.5006
0.5369
0.5696
0.5984
0.6234
0.6444
0.6617
0.6753
0.6854
0.6923
0.6961
0.6973
0.6960
0.6926
0.6874
0.6807
0.6727
0.6637
0.6540
0.6438
0.6334
0.6229
0.6125
0.6024
0.5928
0.5837
0.5754
0.5677
0.5610
0.5552
0.5503
0.5465
0.5438
0.5421
0.5416
0.5421
0.5438
0.5465
0.5503
0.5552
0.5610
0.5677
0.5754
0.5837
0.5928
0.6024
0.6125
0.6229
0.6334
0.6438
0.6540
0.6637
0.6727
0.6807
0.6874
0.6926
0.6960
0.6973
0.6961
0.6923
0.6854
0.6753
0.6617
0.6444
0.6234
0.5984
0.5696
0.5369
0.5006
0.4608
0.4179
0.3724
0.3247
0.2755
0.2255
0.1754
0.1262
0.0785
0.0334
-0.0083
-0.0459
-0.0786
-0.1057
-0.1268
-0.1415
-0.1496
-0.1513
-0.1467
-0.1364
-0.1209
-0.1012
-0.0782
-0.0530
-0.0269
-0.0011
0.0233
0.0450
0.0632
0.0770
0.0858
0.0894
0.0878
0.0812
0.0701
0.0554
0.0380
0.0190
-0.0002
-0.0186
-0.0349
-0.0482
-0.0577
-0.0628
-0.0634
-0.0594
-0.0514
-0.0400
-0.0261
-0.0108
0.0047
0.0193
0.0319
0.0415
0.0475
0.0494
0.0474
0.0415
0.0324
0.0209
0.0081
-0.0050
-0.0173
-0.0277
-0.0353
-0.0396
-0.0361
-0.0288
-0.0186
-0.0064
0.0068
0.0199
0.0316
0.0410
0.0471
0.0494
0.0476
0.0416
0.0320
0.0193
0.0045
-0.0112
-0.0266
-0.0406
-0.0520
-0.0599
-0.0635
-0.0625
-0.0568
-0.0467
-0.0327
-0.0157
0.0032
0.0228
0.0418
0.0590
0.0732
0.0834
0.0888
0.0889
0.0835
0.0727
0.0570
0.0369
0.0135
-0.0122
-0.0389
-0.0654
-0.0903
-0.1123
-0.1303
-0.1432
-0.1503
-0.1509
-0.1447
-0.1314
-0.1113
-0.0845
-0.0516
-0.0132
0.0300
0.0769
0.1267
0.1785
0.2311
0.2838
0.3355
0.3856
0.4332
0.4778
0.5188
0.5558
0.5887
0.6171
0.6411
0.6606
0.6757
0.6867
0.6937
0.6969
0.6969
0.6937
0.6879
0.6797
0.6695
0.6576
0.6445
0.6303
0.6155
0.6002
0.5847
0.5693
0.5541
0.5394
0.5252
0.5118
0.4992
0.4876
0.4770
0.4675
0.4592
0.4520
0.4462
0.4416
0.4383
0.4363
0.4356
0.4363
0.4383
0.4416
0.4462
0.4520
0.4592
0.4675
0.4770
0.4876
0.4992
0.5118
0.5252
0.5394
0.5541
0.5693
0.5847
0.6002
0.6155
0.6303
0.6445
0.6576
0.6695
0.6797
0.6879
0.6937
0.6969
0.6969
0.6937
0.6867
0.6757
0.6606
0.6411
0.6171
0.5887
0.5558
0.5188
0.4778
0.4332
0.3856
0.3355
0.2838
0.2311
0.1785
0.1267
0.0769
0.0300
-0.0132
-0.0516
-0.0845
-0.1113
-0.1314
-0.1447
-0.1509
-0.1503
-0.1432
-0.1303
-0.1123
-0.0903
-0.0654
-0.0389
-0.0122
0.0135
0.0369
0.0570
0.0727
0.0835
0.0889
0.0888
0.0834
0.0732
0.0590
0.0418
0.0228
0.0032
-0.0157
-0.0327
-0.0467
-0.0568
-0.0625
-0.0635
-0.0599
-0.0520
-0.0406
-0.0266
-0.0112
0.0045
0.0193
0.0320
0.0416
0.0476
0.0494
0.0471
0.0410
0.0316
0.0199
0.0068
-0.0064
-0.0186
-0.0288
-0.0361
-0.0300
-0.0201
-0.0080
0.0053
0.0186
0.0306
0.0403
0.0468
0.0494
0.0478
0.0420
0.0324
0.0196
0.0047
-0.0112
-0.0268
-0.0409
-0.0524
-0.0601
-0.0636
-0.0622
-0.0561
-0.0454
-0.0308
-0.0133
0.0061
0.0260
0.0451
0.0621
0.0758
0.0851
0.0893
0.0880
0.0809
0.0684
0.0508
0.0291
0.0041
-0.0227
-0.0501
-0.0767
-0.1010
-0.1217
-0.1377
-0.1479
-0.1515
-0.1480
-0.1370
-0.1187
-0.0931
-0.0607
-0.0222
0.0217
0.0699
0.1215
0.1754
0.2305
0.2857
0.3400
0.3925
0.4423
0.4887
0.5311
0.5691
0.6023
0.6305
0.6536
0.6716
0.6847
0.6931
0.6969
0.6966
0.6925
0.6850
0.6745
0.6614
0.6462
0.6292
0.6108
0.5914
0.5713
0.5509
0.5304
0.5100
0.4901
0.4707
0.4520
0.4343
0.4176
0.4019
0.3875
0.3743
0.3624
0.3518
0.3426
0.3348
0.3284
0.3235
0.3199
0.3177
0.3170
0.3177
0.3199
0.3235
0.3284
0.3348
0.3426
0.3518
0.3624
0.3743
0.3875
0.4019
0.4176
0.4343
0.4520
0.4707
0.4901
0.5100
0.5304
0.5509
0.5713
0.5914
0.6108
0.6292
0.6462
0.6614
0.6745
0.6850
0.6925
0.6966
0.6969
0.6931
0.6847
0.6716
0.6536
0.6305
0.6023
0.5691
0.5311
0.4887
0.4423
0.3925
0.3400
0.2857
0.2305
0.1754
0.1215
0.0699
0.0217
-0.0222
-0.0607
-0.0931
-0.1187
-0.1370
-0.1480
-0.1515
-0.1479
-0.1377
-0.1217
-0.1010
-0.0767
-0.0501
-0.0227
0.0041
0.0291
0.0508
0.0684
0.0809
0.0880
0.0893
0.0851
0.0758
0.0621
0.0451
0.0260
0.0061
-0.0133
-0.0308
-0.0454
-0.0561
-0.0622
-0.0636
-0.0601
-0.0524
-0.0409
-0.0268
-0.0112
0.0047
0.0196
0.0324
0.0420
0.0478
0.0494
0.0468
0.0403
0.0306
0.0186
0.0053
-0.0080
-0.0201
-0.0300
-0.0218
-0.0098
0.0035
0.0169
0.0293
0.0394
0.0463
0.0494
0.0481
0.0425
0.0330
0.0203
0.0053
-0.0108
-0.0266
-0.0409
-0.0525
-0.0603
-0.0636
-0.0620
-0.0555
-0.0444
-0.0293
-0.0113
0.0085
0.0287
0.0478
0.0646
0.0778
0.0864
0.0895
0.0868
0.0783
0.0641
0.0448
0.0215
-0.0047
-0.0325
-0.0603
-0.0868
-0.1103
-0.1296
-0.1433
-0.1505
-0.1505
-0.1428
-0.1271
-0.1036
-0.0727
-0.0349
0.0089
0.0578
0.1107
0.1664
0.2236
0.2812
0.3381
0.3931
0.4453
0.4938
0.5380
0.5772
0.6111
0.6394
0.6620
0.6789
0.6902
0.6961
0.6971
0.6933
0.6854
0.6736
0.6585
0.6407
0.6204
0.5984
0.5749
0.5503
0.5252
0.4998
0.4745
0.4494
0.4250
0.4013
0.3785
0.3568
0.3363
0.3170
0.2991
0.2826
0.2676
0.2539
0.2417
0.2310
0.2218
0.2139
0.2076
0.2026
0.1991
0.1970
0.1963
0.1970
0.1991
0.2026
0.2076
0.2139
0.2218
0.2310
0.2417
0.2539
0.2676
0.2826
0.2991
0.3170
0.3363
0.3568
0.3785
0.4013
0.4250
0.4494
0.4745
0.4998
0.5252
0.5503
0.5749
0.5984
0.6204
0.6407
0.6585
0.6736
0.6854
0.6933
0.6971
0.6961
0.6902
0.6789
0.6620
0.6394
0.6111
0.5772
0.5380
0.4938
0.4453
0.3931
0.3381
0.2812
0.2236
0.1664
0.1107
0.0578
0.0089
-0.0349
-0.0727
-0.1036
-0.1271
-0.1428
-0.1505
-0.1505
-0.1433
-0.1296
-0.1103
-0.0868
-0.0603
-0.0325
-0.0047
0.0215
0.0448
0.0641
0.0783
0.0868
0.0895
0.0864
0.0778
0.0646
0.0478
0.0287
0.0085
-0.0113
-0.0293
-0.0444
-0.0555
-0.0620
-0.0636
-0.0603
-0.0525
-0.0409
-0.0266
-0.0108
0.0053
0.0203
0.0330
0.0425
0.0481
0.0494
0.0463
0.0394
0.0293
0.0169
0.0035
-0.0098
-0.0218
-0.0119
0.0014
0.0150
0.0277
0.0383
0.0457
0.0492
0.0484
0.0432
0.0339
0.0212
0.0062
-0.0101
-0.0261
-0.0406
-0.0524
-0.0603
-0.0636
-0.0619
-0.0552
-0.0437
-0.0282
-0.0098
0.0103
0.0308
0.0500
0.0667
0.0794
0.0873
0.0895
0.0856
0.0756
0.0599
0.0392
0.0145
-0.0129
-0.0414
-0.0696
-0.0957
-0.1183
-0.1359
-0.1473
-0.1515
-0.1478
-0.1358
-0.1154
-0.0869
-0.0508
-0.0079
0.0409
0.0944
0.1514
0.2105
0.2704
0.3298
0.3875
0.4423
0.4932
0.5395
0.5804
0.6155
0.6444
0.6670
0.6832
0.6932
0.6972
0.6956
0.6887
0.6772
0.6614
0.6421
0.6196
0.5947
0.5677
0.5394
0.5100
0.4801
0.4501
0.4203
0.3909
0.3624
0.3348
0.3084
0.2834
0.2597
0.2375
0.2168
0.1977
0.1801
0.1641
0.1497
0.1367
0.1253
0.1153
0.1067
0.0995
0.0937
0.0892
0.0860
0.0841
0.0834
0.0841
0.0860
0.0892
0.0937
0.0995
0.1067
0.1153
0.1253
0.1367
0.1497
0.1641
0.1801
0.1977
0.2168
0.2375
0.2597
0.2834