# vtk DataFile Version 1.0
2D Sin graph datase
ASCII

DATASET STRUCTURED_POINTS
DIMENSIONS 201 201 1
ORIGIN 0 0 0
SPACING 0.05 0.05 0.05

POINT_DATA 40401

SCALARS scalars float
LOOKUP_TABLE default
0.0367
0.0407
0.0416
0.0393
0.0338
0.0254
0.0148
0.0027
-0.0101
-0.0226
-0.0340
-0.0434
-0.0500
-0.0533
-0.0531
-0.0492
-0.0418
-0.0312
-0.0181
-0.0032
0.0126
0.0284
0.0432
0.0560
0.0661
0.0727
0.0754
0.0739
0.0681
0.0582
0.0445
0.0276
0.0082
-0.0129
-0.0346
-0.0561
-0.0763
-0.0942
-0.1090
-0.1199
-0.1262
-0.1276
-0.1235
-0.1140
-0.0989
-0.0785
-0.0531
-0.0232
0.0108
0.0482
0.0881
0.1301
0.1732
0.2167
0.2599
0.3021
0.3428
0.3813
0.4173
0.4502
0.4799
0.5061
0.5286
0.5474
0.5625
0.5740
0.5819
0.5865
0.5880
0.5865
0.5824
0.5759
0.5673
0.5569
0.5450
0.5317
0.5175
0.5025
0.4870
0.4711
0.4551
0.4391
0.4234
0.4080
0.3931
0.3787
0.3650
0.3520
0.3398
0.3284
0.3180
0.3085
0.2999
0.2923
0.2857
0.2801
0.2755
0.2719
0.2694
0.2678
0.2673
0.2678
0.2694
0.2719
0.2755
0.2801
0.2857
0.2923
0.2999
0.3085
0.3180
0.3284
0.3398
0.3520
0.3650
0.3787
0.3931
0.4080
0.4234
0.4391
0.4551
0.4711
0.4870
0.5025
0.5175
0.5317
0.5450
0.5569
0.5673
0.5759
0.5824
0.5865
0.5880
0.5865
0.5819
0.5740
0.5625
0.5474
0.5286
0.5061
0.4799
0.4502
0.4173
0.3813
0.3428
0.3021
0.2599
0.2167
0.1732
0.1301
0.0881
0.0482
0.0108
-0.0232
-0.0531
-0.0785
-0.0989
-0.1140
-0.1235
-0.1276
-0.1262
-0.1199
-0.1090
-0.0942
-0.0763
-0.0561
-0.0346
-0.0129
0.0082
0.0276
0.0445
0.0582
0.0681
0.0739
0.0754
0.0727
0.0661
0.0560
0.0432
0.0284
0.0126
-0.0032
-0.0181
-0.0312
-0.0418
-0.0492
-0.0531
-0.0533
-0.0500
-0.0434
-0.0340
-0.0226
-0.0101
0.0027
0.0148
0.0254
0.0338
0.0393
0.0416
0.0407
0.0367
0.0407
0.0416
0.0392
0.0335
0.0250
0.0142
0.0019
-0.0111
-0.0237
-0.0350
-0.0442
-0.0506
-0.0535
-0.0528
-0.0482
-0.0401
-0.0288
-0.0151
0.0003
0.0164
0.0323
0.0469
0.0592
0.0685
0.0740
0.0754
0.0724
0.0649
0.0532
0.0378
0.0194
-0.0013
-0.0233
-0.0455
-0.0669
-0.0864
-0.1031
-0.1160
-0.1244
-0.1277
-0.1254
-0.1173
-0.1033
-0.0836
-0.0584
-0.0282
0.0064
0.0447
0.0861
0.1296
0.1745
0.2199
0.2650
0.3090
0.3513
0.3913
0.4283
0.4619
0.4919
0.5179
0.5398
0.5575
0.5711
0.5806
0.5862
0.5880
0.5863
0.5815
0.5737
0.5634
0.5508
0.5363
0.5202
0.5028
0.4844
0.4653
0.4458
0.4260
0.4062
0.3866
0.3673
0.3486
0.3304
0.3130
0.2964
0.2806
0.2658
0.2519
0.2391
0.2273
0.2165
0.2067
0.1980
0.1904
0.1837
0.1781
0.1736
0.1700
0.1675
0.1660
0.1655
0.1660
0.1675
0.1700
0.1736
0.1781
0.1837
0.1904
0.1980
0.2067
0.2165
0.2273
0.2391
0.2519
0.2658
0.2806
0.2964
0.3130
0.3304
0.3486
0.3673
0.3866
0.4062
0.4260
0.4458
0.4653
0.4844
0.5028
0.5202
0.5363
0.5508
0.5634
0.5737
0.5815
0.5863
0.5880
0.5862
0.5806
0.5711
0.5575
0.5398
0.5179
0.4919
0.4619
0.4283
0.3913
0.3513
0.3090
0.2650
0.2199
0.1745
0.1296
0.0861
0.0447
0.0064
-0.0282
-0.0584
-0.0836
-0.1033
-0.1173
-0.1254
-0.1277
-0.1244
-0.1160
-0.1031
-0.0864
-0.0669
-0.0455
-0.0233
-0.0013
0.0194
0.0378
0.0532
0.0649
0.0724
0.0754
0.0740
0.0685
0.0592
0.0469
0.0323
0.0164
0.0003
-0.0151
-0.0288
-0.0401
-0.0482
-0.0528
-0.0535
-0.0506
-0.0442
-0.0350
-0.0237
-0.0111
0.0019
0.0142
0.0250
0.0335
0.0392
0.0416
0.0407
0.0416
0.0392
0.0335
0.0248
0.0138
0.0013
-0.0118
-0.0245
-0.0358
-0.0449
-0.0511
-0.0536
-0.0524
-0.0473
-0.0386
-0.0267
-0.0124
0.0034
0.0198
0.0357
0.0501
0.0619
0.0704
0.0749
0.0749
0.0704
0.0613
0.0480
0.0311
0.0113
-0.0105
-0.0331
-0.0556
-0.0767
-0.0954
-0.1105
-0.1213
-0.1270
-0.1270
-0.1209
-0.1087
-0.0902
-0.0659
-0.0361
-0.0013
0.0376
0.0800
0.1249
0.1713
0.2185
0.2655
0.3113
0.3554
0.3968
0.4351
0.4696
0.5001
0.5261
0.5477
0.5645
0.5768
0.5845
0.5878
0.5870
0.5824
0.5743
0.5630
0.5490
0.5326
0.5141
0.4940
0.4726
0.4503
0.4273
0.4040
0.3805
0.3573
0.3344
0.3120
0.2903
0.2694
0.2494
0.2303
0.2124
0.1955
0.1797
0.1650
0.1514
0.1390
0.1277
0.1174
0.1083
0.1001
0.0930
0.0869
0.0818
0.0777
0.0745
0.0722
0.0708
0.0703
0.0708
0.0722
0.0745
0.0777
0.0818
0.0869
0.0930
0.1001
0.1083
0.1174
0.1277
0.1390
0.1514
0.1650
0.1797
0.1955
0.2124
0.2303
0.2494
0.2694
0.2903
0.3120
0.3344
0.3573
0.3805
0.4040
0.4273
0.4503
0.4726
0.4940
0.5141
0.5326
0.5490
0.5630
0.5743
0.5824
0.5870
0.5878
0.5845
0.5768
0.5645
0.5477
0.5261
0.5001
0.4696
0.4351
0.3968
0.3554
0.3113
0.2655
0.2185
0.1713
0.1249
0.0800
0.0376
-0.0013
-0.0361
-0.0659
-0.0902
-0.1087
-0.1209
-0.1270
-0.1270
-0.1213
-0.1105
-0.0954
-0.0767
-0.0556
-0.0331
-0.0105
0.0113
0.0311
0.0480
0.0613
0.0704
0.0749
0.0749
0.0704
0.0619
0.0501
0.0357
0.0198
0.0034
-0.0124
-0.0267
-0.0386
-0.0473
-0.0524
-0.0536
-0.0511
-0.0449
-0.0358
-0.0245
-0.0118
0.0013
0.0138
0.0248
0.0335
0.0392
0.0416
0.0393
0.0335
0.0248
0.0137
0.0011
-0.0122
-0.0250
-0.0364
-0.0454
-0.0514
-0.0537
-0.0520
-0.0465
-0.0372
-0.0248
-0.0100
0.0062
0.0228
0.0387
0.0528
0.0642
0.0719
0.0753
0.0742
0.0682
0.0576
0.0428
0.0245
0.0035
-0.0192
-0.0424
-0.0649
-0.0855
-0.1030
-0.1165
-0.1249
-0.1277
-0.1243
-0.1144
-0.0980
-0.0751
-0.0463
-0.0120
0.0270
0.0699
0.1158
0.1637
0.2125
0.2613
0.3090
0.3549
0.3981
0.4378
0.4736
0.5048
0.5313
0.5528
0.5691
0.5803
0.5865
0.5879
0.5848
0.5774
0.5663
0.5517
0.5342
0.5141
0.4919
0.4680
0.4429
0.4169
0.3903
0.3635
0.3368
0.3105
0.2847
0.2596
0.2355
0.2124
0.1904
0.1695
0.1499
0.1316
0.1145
0.0987
0.0842
0.0708
0.0586
0.0476
0.0377
0.0288
0.0209
0.0140
0.0081
0.0030
-0.0013
-0.0047
-0.0074
-0.0092
-0.0104
-0.0107
-0.0104
-0.0092
-0.0074
-0.0047
-0.0013
0.0030
0.0081
0.0140
0.0209
0.0288
0.0377
0.0476
0.0586
0.0708
0.0842
0.0987
0.1145
0.1316
0.1499
0.1695
0.1904
0.2124
0.2355
0.2596
0.2847
0.3105
0.3368
0.3635
0.3903
0.4169
0.4429
0.4680
0.4919
0.5141
0.5342
0.5517
0.5663
0.5774
0.5848
0.5879
0.5865
0.5803
0.5691
0.5528
0.5313
0.5048
0.4736
0.4378
0.3981
0.3549
0.3090
0.2613
0.2125
0.1637
0.1158
0.0699
0.0270
-0.0120
-0.0463
-0.0751
-0.0980
-0.1144
-0.1243
-0.1277
-0.1249
-0.1165
-0.1030
-0.0855
-0.0649
-0.0424
-0.0192
0.0035
0.0245
0.0428
0.0576
0.0682
0.0742
0.0753
0.0719
0.0642
0.0528
0.0387
0.0228
0.0062
-0.0100
-0.0248
-0.0372
-0.0465
-0.0520
-0.0537
-0.0514
-0.0454
-0.0364
-0.0250
-0.0122
0.0011
0.0137
0.0248
0.0335
0.0393
0.0338
0.0250
0.0138
0.0011
-0.0123
-0.0253
-0.0367
-0.0458
-0.0516
-0.0537
-0.0517
-0.0458
-0.0361
-0.0232
-0.0080
0.0086
0.0254
0.0413
0.0552
0.0660
0.0730
0.0755
0.0731
0.0658
0.0539
0.0377
0.0181
-0.0040
-0.0274
-0.0509
-0.0732
-0.0931
-0.1094
-0.1210
-0.1270
-0.1268
-0.1199
-0.1061
-0.0855
-0.0584
-0.0253
0.0132
0.0562
0.1027
0.1516
0.2019
0.2524
0.3021
0.3500
0.3951
0.4366
0.4739
0.5064
0.5337
0.5555
0.5717
0.5823
0.5874
0.5873
0.5822
0.5724
0.5586
0.5410
0.5202
0.4968
0.4711
0.4437
0.4151
0.3857
0.3558
0.3260
0.2964
0.2673
0.2391
0.2119
0.1858
0.1610
0.1375
0.1155
0.0949
0.0758
0.0582
0.0420
0.0271
0.0136
0.0014
-0.0096
-0.0195
-0.0283
-0.0361
-0.0430
-0.0490
-0.0542
-0.0587
-0.0624
-0.0655
-0.0680
-0.0699
-0.0712
-0.0720
-0.0723
-0.0720
-0.0712
-0.0699
-0.0680
-0.0655
-0.0624
-0.0587
-0.0542
-0.0490
-0.0430
-0.0361
-0.0283
-0.0195
-0.0096
0.0014
0.0136
0.0271
0.0420
0.0582
0.0758
0.0949
0.1155
0.1375
0.1610
0.1858
0.2119
0.2391
0.2673
0.2964
0.3260
0.3558
0.3857
0.4151
0.4437
0.4711
0.4968
0.5202
0.5410
0.5586
0.5724
0.5822
0.5873
0.5874
0.5823
0.5717
0.5555
0.5337
0.5064
0.4739
0.4366
0.3951
0.3500
0.3021
0.2524
0.2019
0.1516
0.1027
0.0562
0.0132
-0.0253
-0.0584
-0.0855
-0.1061
-0.1199
-0.1268
-0.1270
-0.1210
-0.1094
-0.0931
-0.0732
-0.0509
-0.0274
-0.0040
0.0181
0.0377
0.0539
0.0658
0.0731
0.0755
0.0730
0.0660
0.0552
0.0413
0.0254
0.0086
-0.0080
-0.0232
-0.0361
-0.0458
-0.0517
-0.0537
-0.0516
-0.0458
-0.0367
-0.0253
-0.0123
0.0011
0.0138
0.0250
0.0338
0.0254
0.0142
0.0013
-0.0122
-0.0253
-0.0368
-0.0459
-0.0517
-0.0537
-0.0515
-0.0452
-0.0351
-0.0219
-0.0063
0.0106
0.0275
0.0434
0.0571
0.0675
0.0738
0.0754
0.0720
0.0635
0.0502
0.0328
0.0120
-0.0110
-0.0350
-0.0587
-0.0807
-0.0998
-0.1146
-0.1242
-0.1277
-0.1245
-0.1141
-0.0965
-0.0718
-0.0406
-0.0033
0.0391
0.0857
0.1353
0.1868
0.2389
0.2906
0.3405
0.3878
0.4315
0.4707
0.5048
0.5334
0.5561
0.5727
0.5832
0.5878
0.5865
0.5799
0.5682
0.5520
0.5317
0.5081
0.4815
0.4527
0.4221
0.3903
0.3578
0.3250
0.2923
0.2602
0.2288
0.1985
0.1695
0.1420
0.1160
0.0916
0.0690
0.0480
0.0288
0.0112
-0.0047
-0.0191
-0.0321
-0.0436
-0.0539
-0.0630
-0.0710
-0.0779
-0.0840
-0.0892
-0.0937
-0.0975
-0.1007
-0.1034
-0.1057
-0.1075
-0.1089
-0.1099
-0.1107
-0.1111
-0.1112
-0.1111
-0.1107
-0.1099
-0.1089
-0.1075
-0.1057
-0.1034
-0.1007
-0.0975
-0.0937
-0.0892
-0.0840
-0.0779
-0.0710
-0.0630
-0.0539
-0.0436
-0.0321
-0.0191
-0.0047
0.0112
0.0288
0.0480
0.0690
0.0916
0.1160
0.1420
0.1695
0.1985
0.2288
0.2602
0.2923
0.3250
0.3578
0.3903
0.4221
0.4527
0.4815
0.5081
0.5317
0.5520
0.5682
0.5799
0.5865
0.5878
0.5832
0.5727
0.5561
0.5334
0.5048
0.4707
0.4315
0.3878
0.3405
0.2906
0.2389
0.1868
0.1353
0.0857
0.0391
-0.0033
-0.0406
-0.0718
-0.0965
-0.1141
-0.1245
-0.1277
-0.1242
-0.1146
-0.0998
-0.0807
-0.0587
-0.0350
-0.0110
0.0120
0.0328
0.0502
0.0635
0.0720
0.0754
0.0738
0.0675
0.0571
0.0434
0.0275
0.0106
-0.0063
-0.0219
-0.0351
-0.0452
-0.0515
-0.0537
-0.0517
-0.0459
-0.0368
-0.0253
-0.0122
0.0013
0.0142
0.0254
0.0148
0.0019
-0.0118
-0.0250
-0.0367
-0.0459
-0.0518
-0.0537
-0.0514
-0.0449
-0.0345
-0.0209
-0.0050
0.0122
0.0293
0.0452
0.0587
0.0687
0.0744
0.0752
0.0707
0.0611
0.0467
0.0281
0.0064
-0.0174
-0.0419
-0.0657
-0.0873
-0.1054
-0.1188
-0.1263
-0.1272
-0.1209
-0.1071
-0.0857
-0.0572
-0.0219
0.0192
0.0652
0.1150
0.1673
0.2208
0.2743
0.3265
0.3761
0.4222
0.4638
0.5001
0.5305
0.5547
0.5723
0.5833
0.5879
0.5861
0.5784
0.5652
0.5471
0.5247
0.4985
0.4692
0.4375
0.4040
0.3692
0.3339
0.2984
0.2632
0.2288
0.1955
0.1635
0.1331
0.1044
0.0777
0.0529
0.0301
0.0092
-0.0096
-0.0266
-0.0417
-0.0551
-0.0669
-0.0772
-0.0861
-0.0937
-0.1002
-0.1057
-0.1102
-0.1140
-0.1171
-0.1196
-0.1215
-0.1231
-0.1243
-0.1252
-0.1258
-0.1263
-0.1267
-0.1269
-0.1271
-0.1271
-0.1272
-0.1271
-0.1271
-0.1269
-0.1267
-0.1263
-0.1258
-0.1252
-0.1243
-0.1231
-0.1215
-0.1196
-0.1171
-0.1140
-0.1102
-0.1057
-0.1002
-0.0937
-0.0861
-0.0772
-0.0669
-0.0551
-0.0417
-0.0266
-0.0096
0.0092
0.0301
0.0529
0.0777
0.1044
0.1331
0.1635
0.1955
0.2288
0.2632
0.2984
0.3339
0.3692
0.4040
0.4375
0.4692
0.4985
0.5247
0.5471
0.5652
0.5784
0.5861
0.5879
0.5833
0.5723
0.5547
0.5305
0.5001
0.4638
0.4222
0.3761
0.3265
0.2743
0.2208
0.1673
0.1150
0.0652
0.0192
-0.0219
-0.0572
-0.0857
-0.1071
-0.1209
-0.1272
-0.1263
-0.1188
-0.1054
-0.0873
-0.0657
-0.0419
-0.0174
0.0064
0.0281
0.0467
0.0611
0.0707
0.0752
0.0744
0.0687
0.0587
0.0452
0.0293
0.0122
-0.0050
-0.0209
-0.0345
-0.0449
-0.0514
-0.0537
-0.0518
-0.0459
-0.0367
-0.0250
-0.0118
0.0019
0.0148
0.0027
-0.0111
-0.0245
-0.0364
-0.0458
-0.0517
-0.0537
-0.0513
-0.0447
-0.0341
-0.0202
-0.0040
0.0133
0.0307
0.0466
0.0600
0.0696
0.0748
0.0748
0.0695
0.0589
0.0434
0.0238
0.0012
-0.0233
-0.0481
-0.0719
-0.0930
-0.1101
-0.1220
-0.1275
-0.1258
-0.1164
-0.0992
-0.0743
-0.0419
-0.0030
0.0417
0.0910
0.1437
0.1982
0.2534
0.3077
0.3598
0.4086
0.4529
0.4919
0.5248
0.5510
0.5703
0.5826
0.5878
0.5861
0.5781
0.5640
0.5445
0.5202
0.4919
0.4603
0.4260
0.3898
0.3525
0.3145
0.2765
0.2391
0.2026
0.1675
0.1341
0.1025
0.0731
0.0459
0.0209
-0.0017
-0.0220
-0.0401
-0.0560
-0.0699
-0.0818
-0.0920
-0.1006
-0.1076
-0.1133
-0.1179
-0.1214
-0.1239
-0.1257
-0.1269
-0.1275
-0.1277
-0.1276
-0.1272
-0.1266
-0.1260
-0.1252
-0.1245
-0.1238
-0.1232
-0.1227
-0.1223
-0.1221
-0.1220
-0.1221
-0.1223
-0.1227
-0.1232
-0.1238
-0.1245
-0.1252
-0.1260
-0.1266
-0.1272
-0.1276
-0.1277
-0.1275
-0.1269
-0.1257
-0.1239
-0.1214
-0.1179
-0.1133
-0.1076
-0.1006
-0.0920
-0.0818
-0.0699
-0.0560
-0.0401
-0.0220
-0.0017
0.0209
0.0459
0.0731
0.1025
0.1341
0.1675
0.2026
0.2391
0.2765
0.3145
0.3525
0.3898
0.4260
0.4603
0.4919
0.5202
0.5445
0.5640
0.5781
0.5861
0.5878
0.5826
0.5703
0.5510
0.5248
0.4919
0.4529
0.4086
0.3598
0.3077
0.2534
0.1982
0.1437
0.0910
0.0417
-0.0030
-0.0419
-0.0743
-0.0992
-0.1164
-0.1258
-0.1275
-0.1220
-0.1101
-0.0930
-0.0719
-0.0481
-0.0233
0.0012
0.0238
0.0434
0.0589
0.0695
0.0748
0.0748
0.0696
0.0600
0.0466
0.0307
0.0133
-0.0040
-0.0202
-0.0341
-0.0447
-0.0513
-0.0537
-0.0517
-0.0458
-0.0364
-0.0245
-0.0111
0.0027
-0.0101
-0.0237
-0.0358
-0.0454
-0.0516
-0.0537
-0.0514
-0.0447
-0.0339
-0.0199
-0.0035
0.0141
0.0316
0.0476
0.0609
0.0703
0.0751
0.0745
0.0684
0.0568
0.0404
0.0199
-0.0035
-0.0285
-0.0537
-0.0773
-0.0979
-0.1140
-0.1243
-0.1277
-0.1235
-0.1112
-0.0908
-0.0623
-0.0265
0.0160
0.0640
0.1163
0.1713
0.2278
0.2841
0.3387
0.3904
0.4378
0.4799
0.5158
0.5449
0.5666
0.5808
0.5874
0.5867
0.5789
0.5645
0.5442
0.5187
0.4887
0.4551
0.4186
0.3801
0.3403
0.2999
0.2596
0.2201
0.1817
0.1449
0.1102
0.0777
0.0476
0.0201
-0.0047
-0.0269
-0.0465
-0.0635
-0.0782
-0.0905
-0.1007
-0.1090
-0.1155
-0.1204
-0.1239
-0.1262
-0.1274
-0.1277
-0.1273
-0.1262
-0.1247
-0.1229
-0.1207
-0.1184
-0.1161
-0.1137
-0.1114
-0.1092
-0.1071
-0.1053
-0.1037
-0.1024
-0.1013
-0.1005
-0.1001
-0.0999
-0.1001
-0.1005
-0.1013
-0.1024
-0.1037
-0.1053
-0.1071
-0.1092
-0.1114
-0.1137
-0.1161
-0.1184
-0.1207
-0.1229
-0.1247
-0.1262
-0.1273
-0.1277
-0.1274
-0.1262
-0.1239
-0.1204
-0.1155
-0.1090
-0.1007
-0.0905
-0.0782
-0.0635
-0.0465
-0.0269
-0.0047
0.0201
0.0476
0.0777
0.1102
0.1449
0.1817
0.2201
0.2596
0.2999
0.3403
0.3801
0.4186
0.4551
0.4887
0.5187
0.5442
0.5645
0.5789
0.5867
0.5874
0.5808
0.5666
0.5449
0.5158
0.4799
0.4378
0.3904
0.3387
0.2841
0.2278
0.1713
0.1163
0.0640
0.0160
-0.0265
-0.0623
-0.0908
-0.1112
-0.1235
-0.1277
-0.1243
-0.1140
-0.0979
-0.0773
-0.0537
-0.0285
-0.0035
0.0199
0.0404
0.0568
0.0684
0.0745
0.0751
0.0703
0.0609
0.0476
0.0316
0.0141
-0.0035
-0.0199
-0.0339
-0.0447
-0.0514
-0.0537
-0.0516
-0.0454
-0.0358
-0.0237
-0.0101
-0.0226
-0.0350
-0.0449
-0.0514
-0.0537
-0.0515
-0.0449
-0.0341
-0.0199
-0.0033
0.0145
0.0322
0.0483
0.0616
0.0708
0.0752
0.0741
0.0674
0.0551
0.0378
0.0165
-0.0076
-0.0331
-0.0585
-0.0820
-0.1021
-0.1171
-0.1259
-0.1273
-0.1207
-0.1056
-0.0820
-0.0503
-0.0110
0.0347
0.0857
0.1406
0.1978
0.2557
0.3127
0.3673
0.4181
0.4638
0.5033
0.5358
0.5607
0.5776
0.5865
0.5874
0.5807
0.5668
0.5464
0.5202
0.4891
0.4539
0.4155
0.3749
0.3329
0.2903
0.2478
0.2062
0.1660
0.1277
0.0916
0.0582
0.0276
-0.0001
-0.0248
-0.0465
-0.0652
-0.0811
-0.0943
-0.1050
-0.1133
-0.1196
-0.1239
-0.1265
-0.1276
-0.1275
-0.1263
-0.1243
-0.1215
-0.1181
-0.1144
-0.1104
-0.1062
-0.1019
-0.0977
-0.0935
-0.0895
-0.0858
-0.0822
-0.0790
-0.0761
-0.0735
-0.0714
-0.0695
-0.0681
-0.0671
-0.0665
-0.0663
-0.0665
-0.0671
-0.0681
-0.0695
-0.0714
-0.0735
-0.0761
-0.0790
-0.0822
-0.0858
-0.0895
-0.0935
-0.0977
-0.1019
-0.1062
-0.1104
-0.1144
-0.1181
-0.1215
-0.1243
-0.1263
-0.1275
-0.1276
-0.1265
-0.1239
-0.1196
-0.1133
-0.1050
-0.0943
-0.0811
-0.0652
-0.0465
-0.0248
-0.0001
0.0276
0.0582
0.0916
0.1277
0.1660
0.2062
0.2478
0.2903
0.3329
0.3749
0.4155
0.4539
0.4891
0.5202
0.5464
0.5668
0.5807
0.5874
0.5865
0.5776
0.5607
0.5358
0.5033
0.4638
0.4181
0.3673
0.3127
0.2557
0.1978
0.1406
0.0857
0.0347
-0.0110
-0.0503
-0.0820
-0.1056
-0.1207
-0.1273
-0.1259
-0.1171
-0.1021
-0.0820
-0.0585
-0.0331
-0.0076
0.0165
0.0378
0.0551
0.0674
0.0741
0.0752
0.0708
0.0616
0.0483
0.0322
0.0145
-0.0033
-0.0199
-0.0341
-0.0449
-0.0515
-0.0537
-0.0514
-0.0449
-0.0350
-0.0226
-0.0340
-0.0442
-0.0511
-0.0537
-0.0517
-0.0452
-0.0345
-0.0202
-0.0035
0.0145
0.0324
0.0486
0.0620
0.0712
0.0753
0.0738
0.0665
0.0536
0.0356
0.0136
-0.0111
-0.0371
-0.0627
-0.0860
-0.1055
-0.1196
-0.1269
-0.1265
-0.1175
-0.0997
-0.0732
-0.0383
0.0040
0.0527
0.1065
0.1637
0.2227
0.2817
0.3392
0.3934
0.4429
0.4865
0.5231
0.5519
0.5724
0.5845
0.5880
0.5832
0.5706
0.5508
0.5247
0.4930
0.4567
0.4169
0.3744
0.3304
0.2857
0.2411
0.1975
0.1554
0.1155
0.0781
0.0437
0.0124
-0.0155
-0.0401
-0.0613
-0.0792
-0.0939
-0.1057
-0.1146
-0.1211
-0.1252
-0.1273
-0.1277
-0.1264
-0.1239
-0.1204
-0.1160
-0.1109
-0.1053
-0.0994
-0.0933
-0.0872
-0.0811
-0.0751
-0.0693
-0.0638
-0.0586
-0.0537
-0.0492
-0.0451
-0.0414
-0.0381
-0.0353
-0.0329
-0.0309
-0.0294
-0.0283
-0.0276
-0.0274
-0.0276
-0.0283
-0.0294
-0.0309
-0.0329
-0.0353
-0.0381
-0.0414
-0.0451
-0.0492
-0.0537
-0.0586
-0.0638
-0.0693
-0.0751
-0.0811
-0.0872
-0.0933
-0.0994
-0.1053
-0.1109
-0.1160
-0.1204
-0.1239
-0.1264
-0.1277
-0.1273
-0.1252
-0.1211
-0.1146
-0.1057
-0.0939
-0.0792
-0.0613
-0.0401
-0.0155
0.0124
0.0437
0.0781
0.1155
0.1554
0.1975
0.2411
0.2857
0.3304
0.3744
0.4169
0.4567
0.4930
0.5247
0.5508
0.5706
0.5832
0.5880
0.5845
0.5724
0.5519
0.5231
0.4865
0.4429
0.3934
0.3392
0.2817
0.2227
0.1637
0.1065
0.0527
0.0040
-0.0383
-0.0732
-0.0997
-0.1175
-0.1265
-0.1269
-0.1196
-0.1055
-0.0860
-0.0627
-0.0371
-0.0111
0.0136
0.0356
0.0536
0.0665
0.0738
0.0753
0.0712
0.0620
0.0486
0.0324
0.0145
-0.0035
-0.0202
-0.0345
-0.0452
-0.0517
-0.0537
-0.0511
-0.0442
-0.0340
-0.0434
-0.0506
-0.0536
-0.0520
-0.0458
-0.0351
-0.0209
-0.0040
0.0141
0.0322
0.0486
0.0621
0.0713
0.0754
0.0736
0.0659
0.0525
0.0339
0.0113
-0.0140
-0.0404
-0.0661
-0.0894
-0.1084
-0.1215
-0.1275
-0.1252
-0.1141
-0.0938
-0.0645
-0.0268
0.0185
0.0699
0.1262
0.1854
0.2459
0.3058
0.3634
0.4169
0.4649
0.5061
0.5395
0.5645
0.5806
0.5876
0.5858
0.5754
0.5571
0.5317
0.5002
0.4634
0.4225
0.3787
0.3329
0.2862
0.2396
0.1939
0.1499
0.1083
0.0694
0.0339
0.0018
-0.0266
-0.0512
-0.0720
-0.0892
-0.1029
-0.1133
-0.1207
-0.1253
-0.1275
-0.1275
-0.1256
-0.1221
-0.1173
-0.1115
-0.1049
-0.0977
-0.0901
-0.0822
-0.0743
-0.0665
-0.0588
-0.0514
-0.0442
-0.0375
-0.0311
-0.0252
-0.0197
-0.0147
-0.0102
-0.0061
-0.0025
0.0006
0.0033
0.0056
0.0075
0.0089
0.0099
0.0105
0.0107
0.0105
0.0099
0.0089
0.0075
0.0056
0.0033
0.0006
-0.0025
-0.0061
-0.0102
-0.0147
-0.0197
-0.0252
-0.0311
-0.0375
-0.0442
-0.0514
-0.0588
-0.0665
-0.0743
-0.0822
-0.0901
-0.0977
-0.1049
-0.1115
-0.1173
-0.1221
-0.1256
-0.1275
-0.1275
-0.1253
-0.1207
-0.1133
-0.1029
-0.0892
-0.0720
-0.0512
-0.0266
0.0018
0.0339
0.0694
0.1083
0.1499
0.1939
0.2396
0.2862
0.3329
0.3787
0.4225
0.4634
0.5002
0.5317
0.5571
0.5754
0.5858
0.5876
0.5806
0.5645
0.5395
0.5061
0.4649
0.4169
0.3634
0.3058
0.2459
0.1854
0.1262
0.0699
0.0185
-0.0268
-0.0645
-0.0938
-0.1141
-0.1252
-0.1275
-0.1215
-0.1084
-0.0894
-0.0661
-0.0404
-0.0140
0.0113
0.0339
0.0525
0.0659
0.0736
0.0754
0.0713
0.0621
0.0486
0.0322
0.0141
-0.0040
-0.0209
-0.0351
-0.0458
-0.0520
-0.0536
-0.0506
-0.0434
-0.0500
-0.0535
-0.0524
-0.0465
-0.0361
-0.0219
-0.0050
0.0133
0.0316
0.0483
0.0620
0.0713
0.0754
0.0735
0.0655
0.0517
0.0326
0.0095
-0.0163
-0.0430
-0.0689
-0.0921
-0.1106
-0.1230
-0.1277
-0.1238
-0.1106
-0.0880
-0.0562
-0.0158
0.0321
0.0861
0.1445
0.2056
0.2673
0.3278
0.3852
0.4378
0.4841
0.5228
0.5530
0.5740
0.5856
0.5876
0.5805
0.5647
0.5410
0.5103
0.4737
0.4324
0.3875
0.3403
0.2918
0.2432
0.1955
0.1494
0.1059
0.0654
0.0284
-0.0047
-0.0338
-0.0587
-0.0794
-0.0961
-0.1090
-0.1183
-0.1243
-0.1272
-0.1276
-0.1256
-0.1216
-0.1161
-0.1092
-0.1013
-0.0927
-0.0835
-0.0741
-0.0646
-0.0552
-0.0460
-0.0370
-0.0285
-0.0204
-0.0128
-0.0057
0.0009
0.0069
0.0123
0.0172
0.0217
0.0256
0.0291
0.0321
0.0347
0.0369
0.0387
0.0402
0.0413
0.0421
0.0426
0.0427
0.0426
0.0421
0.0413
0.0402
0.0387
0.0369
0.0347
0.0321
0.0291
0.0256
0.0217
0.0172
0.0123
0.0069
0.0009
-0.0057
-0.0128
-0.0204
-0.0285
-0.0370
-0.0460
-0.0552
-0.0646
-0.0741
-0.0835
-0.0927
-0.1013
-0.1092
-0.1161
-0.1216
-0.1256
-0.1276
-0.1272
-0.1243
-0.1183
-0.1090
-0.0961
-0.0794
-0.0587
-0.0338
-0.0047
0.0284
0.0654
0.1059
0.1494
0.1955
0.2432
0.2918
0.3403
0.3875
0.4324
0.4737
0.5103
0.5410
0.5647
0.5805
0.5876
0.5856
0.5740
0.5530
0.5228
0.4841
0.4378
0.3852
0.3278
0.2673
0.2056
0.1445
0.0861
0.0321
-0.0158
-0.0562
-0.0880
-0.1106
-0.1238
-0.1277
-0.1230
-0.1106
-0.0921
-0.0689
-0.0430
-0.0163
0.0095
0.0326
0.0517
0.0655
0.0735
0.0754
0.0713
0.0620
0.0483
0.0316
0.0133
-0.0050
-0.0219
-0.0361
-0.0465
-0.0524
-0.0535
-0.0500
-0.0533
-0.0528
-0.0473
-0.0372
-0.0232
-0.0063
0.0122
0.0307
0.0476
0.0616
0.0712
0.0754
0.0735
0.0654
0.0513
0.0319
0.0083
-0.0179
-0.0450
-0.0711
-0.0942
-0.1124
-0.1240
-0.1277
-0.1223
-0.1074
-0.0826
-0.0484
-0.0056
0.0447
0.1010
0.1614
0.2241
0.2869
0.3478
0.4048
0.4563
0.5007
0.5368
0.5636
0.5807
0.5878
0.5850
0.5727
0.5517
0.5229
0.4873
0.4462
0.4008
0.3525
0.3024
0.2519
0.2021
0.1539
0.1083
0.0658
0.0271
-0.0074
-0.0374
-0.0630
-0.0840
-0.1006
-0.1129
-0.1214
-0.1262
-0.1277
-0.1264
-0.1227
-0.1169
-0.1094
-0.1007
-0.0909
-0.0805
-0.0697
-0.0588
-0.0479
-0.0372
-0.0269
-0.0171
-0.0078
0.0009
0.0089
0.0163
0.0230
0.0291
0.0345
0.0394
0.0437
0.0474
0.0507
0.0535
0.0560
0.0580
0.0598
0.0612
0.0624
0.0633
0.0640
0.0644
0.0647
0.0648
0.0647
0.0644
0.0640
0.0633
0.0624
0.0612
0.0598
0.0580
0.0560
0.0535
0.0507
0.0474
0.0437
0.0394
0.0345
0.0291
0.0230
0.0163
0.0089
0.0009
-0.0078
-0.0171
-0.0269
-0.0372
-0.0479
-0.0588
-0.0697
-0.0805
-0.0909
-0.1007
-0.1094
-0.1169
-0.1227
-0.1264
-0.1277
-0.1262
-0.1214
-0.1129
-0.1006
-0.0840
-0.0630
-0.0374
-0.0074
0.0271
0.0658
0.1083
0.1539
0.2021
0.2519
0.3024
0.3525
0.4008
0.4462
0.4873
0.5229
0.5517
0.5727
0.5850
0.5878
0.5807
0.5636
0.5368
0.5007
0.4563
0.4048
0.3478
0.2869
0.2241
0.1614
0.1010
0.0447
-0.0056
-0.0484
-0.0826
-0.1074
-0.1223
-0.1277
-0.1240
-0.1124
-0.0942
-0.0711
-0.0450
-0.0179
0.0083
0.0319
0.0513
0.0654
0.0735
0.0754
0.0712
0.0616
0.0476
0.0307
0.0122
-0.0063
-0.0232
-0.0372
-0.0473
-0.0528
-0.0533
-0.0531
-0.0482
-0.0386
-0.0248
-0.0080
0.0106
0.0293
0.0466
0.0609
0.0708
0.0753
0.0736
0.0655
0.0513
0.0316
0.0077
-0.0189
-0.0463
-0.0726
-0.0958
-0.1137
-0.1248
-0.1276
-0.1209
-0.1043
-0.0777
-0.0414
0.0037
0.0562
0.1146
0.1768
0.2408
0.3044
0.3656
0.4222
0.4725
0.5149
0.5483
0.5719
0.5850
0.5877
0.5802
0.5630
0.5371
0.5035
0.4634
0.4182
0.3692
0.3180
0.2658
0.2139
0.1635
0.1155
0.0708
0.0301
-0.0062
-0.0378
-0.0644
-0.0861
-0.1029
-0.1151
-0.1231
-0.1271
-0.1275
-0.1249
-0.1197
-0.1123
-0.1031
-0.0927
-0.0813
-0.0693
-0.0571
-0.0449
-0.0329
-0.0213
-0.0102
0.0002
0.0099
0.0188
0.0269
0.0342
0.0407
0.0464
0.0514
0.0557
0.0594
0.0626
0.0652
0.0674
0.0691
0.0706
0.0717
0.0726
0.0733
0.0738
0.0742
0.0745
0.0747
0.0748
0.0749
0.0749
0.0749
0.0748
0.0747
0.0745
0.0742
0.0738
0.0733
0.0726
0.0717
0.0706
0.0691
0.0674
0.0652
0.0626
0.0594
0.0557
0.0514
0.0464
0.0407
0.0342
0.0269
0.0188
0.0099
0.0002
-0.0102
-0.0213
-0.0329
-0.0449
-0.0571
-0.0693
-0.0813
-0.0927
-0.1031
-0.1123
-0.1197
-0.1249
-0.1275
-0.1271
-0.1231
-0.1151
-0.1029
-0.0861
-0.0644
-0.0378
-0.0062
0.0301
0.0708
0.1155
0.1635
0.2139
0.2658
0.3180
0.3692
0.4182
0.4634
0.5035
0.5371
0.5630
0.5802
0.5877
0.5850
0.5719
0.5483
0.5149
0.4725
0.4222
0.3656
0.3044
0.2408
0.1768
0.1146
0.0562
0.0037
-0.0414
-0.0777
-0.1043
-0.1209
-0.1276
-0.1248
-0.1137
-0.0958
-0.0726
-0.0463
-0.0189
0.0077
0.0316
0.0513
0.0655
0.0736
0.0753
0.0708
0.0609
0.0466
0.0293
0.0106
-0.0080
-0.0248
-0.0386
-0.0482
-0.0531
-0.0492
-0.0401
-0.0267
-0.0100
0.0086
0.0275
0.0452
0.0600
0.0703
0.0752
0.0738
0.0659
0.0517
0.0319
0.0077
-0.0192
-0.0470
-0.0735
-0.0968
-0.1146
-0.1253
-0.1274
-0.1197
-0.1017
-0.0734
-0.0352
0.0119
0.0664
0.1266
0.1904
0.2557
0.3201
0.3813
0.4374
0.4865
0.5270
0.5577
0.5780
0.5873
0.5858
0.5737
0.5520
0.5214
0.4834
0.4391
0.3903
0.3383
0.2847
0.2309
0.1781
0.1277
0.0804
0.0373
-0.0013
-0.0348
-0.0630
-0.0858
-0.1034
-0.1160
-0.1239
-0.1274
-0.1271
-0.1235
-0.1170
-0.1082
-0.0977
-0.0858
-0.0729
-0.0596
-0.0462
-0.0329
-0.0199
-0.0076
0.0040
0.0147
0.0245
0.0333
0.0411
0.0480
0.0539
0.0590
0.0632
0.0666
0.0694
0.0715
0.0731
0.0742
0.0749
0.0753
0.0755
0.0754
0.0752
0.0749
0.0745
0.0741
0.0738
0.0734
0.0731
0.0729
0.0728
0.0727
0.0728
0.0729
0.0731
0.0734
0.0738
0.0741
0.0745
0.0749
0.0752
0.0754
0.0755
0.0753
0.0749
0.0742
0.0731
0.0715
0.0694
0.0666
0.0632
0.0590
0.0539
0.0480
0.0411
0.0333
0.0245
0.0147
0.0040
-0.0076
-0.0199
-0.0329
-0.0462
-0.0596
-0.0729
-0.0858
-0.0977
-0.1082
-0.1170
-0.1235
-0.1271
-0.1274
-0.1239
-0.1160
-0.1034
-0.0858
-0.0630
-0.0348
-0.0013
0.0373
0.0804
0.1277
0.1781
0.2309
0.2847
0.3383
0.3903
0.4391
0.4834
0.5214
0.5520
0.5737
0.5858
0.5873
0.5780
0.5577
0.5270
0.4865
0.4374
0.3813
0.3201
0.2557
0.1904
0.1266
0.0664
0.0119
-0.0352
-0.0734
-0.1017
-0.1197
-0.1274
-0.1253
-0.1146
-0.0968
-0.0735
-0.0470
-0.0192
0.0077
0.0319
0.0517
0.0659
0.0738
0.0752
0.0703
0.0600
0.0452
0.0275
0.0086
-0.0100
-0.0267
-0.0401
-0.0492
-0.0418
-0.0288
-0.0124
0.0062
0.0254
0.0434
0.0587
0.0696
0.0751
0.0741
0.0665
0.0525
0.0326
0.0083
-0.0189
-0.0470
-0.0738
-0.0973
-0.1152
-0.1256
-0.1272
-0.1187
-0.0995
-0.0698
-0.0300
0.0188
0.0751
0.1371
0.2024
0.2687
0.3337
0.3951
0.4506
0.4985
0.5370
0.5652
0.5823
0.5880
0.5824
0.5661
0.5400
0.5051
0.4630
0.4151
0.3630
0.3085
0.2530
0.1980
0.1449
0.0949
0.0489
0.0077
-0.0283
-0.0587
-0.0833
-0.1022
-0.1156
-0.1239
-0.1275
-0.1269
-0.1226
-0.1152
-0.1053
-0.0935
-0.0803
-0.0663
-0.0518
-0.0372
-0.0230
-0.0093
0.0036
0.0155
0.0263
0.0360
0.0446
0.0519
0.0582
0.0633
0.0674
0.0705
0.0728
0.0743
0.0752
0.0755
0.0753
0.0747
0.0738
0.0727
0.0714
0.0701
0.0686
0.0672
0.0658
0.0645
0.0634
0.0623
0.0614
0.0607
0.0602
0.0599
0.0598
0.0599
0.0602
0.0607
0.0614
0.0623
0.0634
0.0645
0.0658
0.0672
0.0686
0.0701
0.0714
0.0727
0.0738
0.0747
0.0753
0.0755
0.0752
0.0743
0.0728
0.0705
0.0674
0.0633
0.0582
0.0519
0.0446
0.0360
0.0263
0.0155
0.0036
-0.0093
-0.0230
-0.0372
-0.0518
-0.0663
-0.0803
-0.0935
-0.1053
-0.1152
-0.1226
-0.1269
-0.1275
-0.1239
-0.1156
-0.1022
-0.0833
-0.0587
-0.0283
0.0077
0.0489
0.0949
0.1449
0.1980
0.2530
0.3085
0.3630
0.4151
0.4630
0.5051
0.5400
0.5661
0.5824
0.5880
0.5823
0.5652
0.5370
0.4985
0.4506
0.3951
0.3337
0.2687
0.2024
0.1371
0.0751
0.0188
-0.0300
-0.0698
-0.0995
-0.1187
-0.1272
-0.1256
-0.1152
-0.0973
-0.0738
-0.0470
-0.0189
0.0083
0.0326
0.0525
0.0665
0.0741
0.0751
0.0696
0.0587
0.0434
0.0254
0.0062
-0.0124
-0.0288
-0.0418
-0.0312
-0.0151
0.0034
0.0228
0.0413
0.0571
0.0687
0.0748
0.0745
0.0674
0.0536
0.0339
0.0095
-0.0179
-0.0463
-0.0735
-0.0973
-0.1154
-0.1258
-0.1270
-0.1179
-0.0980
-0.0671
-0.0259
0.0245
0.0824
0.1459
0.2125
0.2799
0.3455
0.4069
0.4619
0.5086
0.5453
0.5711
0.5852
0.5874
0.5781
0.5577
0.5275
0.4887
0.4429
0.3917
0.3368
0.2801
0.2232
0.1675
0.1145
0.0654
0.0209
-0.0181
-0.0512
-0.0782
-0.0991
-0.1140
-0.1233
-0.1274
-0.1269
-0.1223
-0.1144
-0.1037
-0.0909
-0.0767
-0.0615
-0.0460
-0.0305
-0.0154
-0.0010
0.0123
0.0245
0.0354
0.0449
0.0530
0.0598
0.0652
0.0694
0.0724
0.0743
0.0753
0.0755
0.0749
0.0738
0.0721
0.0701
0.0678
0.0653
0.0627
0.0600
0.0574
0.0548
0.0523
0.0499
0.0478
0.0458
0.0441
0.0426
0.0413
0.0403
0.0396
0.0392
0.0391
0.0392
0.0396
0.0403
0.0413
0.0426
0.0441
0.0458
0.0478
0.0499
0.0523
0.0548
0.0574
0.0600
0.0627
0.0653
0.0678
0.0701
0.0721
0.0738
0.0749
0.0755
0.0753
0.0743
0.0724