# vtk DataFile Version 1.0
2D Sin graph datase
ASCII

DATASET STRUCTURED_POINTS
DIMENSIONS 201 201 1
ORIGIN 0 0 0
SPACING 0.05 0.05 0.05

POINT_DATA 40401

SCALARS scalars float
LOOKUP_TABLE default
-0.0287
-0.0210
-0.0115
-0.0007
0.0104
0.0211
0.0305
0.0378
0.0426
0.0444
0.0430
0.0384
0.0310
0.0210
0.0093
-0.0034
-0.0164
-0.0288
-0.0397
-0.0484
-0.0543
-0.0570
-0.0563
-0.0521
-0.0446
-0.0341
-0.0212
-0.0065
0.0091
0.0249
0.0400
0.0536
0.0650
0.0736
0.0788
0.0804
0.0782
0.0721
0.0624
0.0494
0.0336
0.0155
-0.0042
-0.0248
-0.0455
-0.0655
-0.0842
-0.1008
-0.1147
-0.1255
-0.1326
-0.1359
-0.1350
-0.1299
-0.1205
-0.1071
-0.0898
-0.0688
-0.0446
-0.0174
0.0122
0.0439
0.0772
0.1115
0.1465
0.1818
0.2169
0.2515
0.2853
0.3179
0.3492
0.3789
0.4069
0.4331
0.4573
0.4797
0.5000
0.5185
0.5351
0.5498
0.5628
0.5742
0.5840
0.5925
0.5996
0.6056
0.6105
0.6145
0.6177
0.6202
0.6222
0.6236
0.6246
0.6253
0.6258
0.6260
0.6262
0.6263
0.6263
0.6263
0.6263
0.6263
0.6263
0.6263
0.6262
0.6260
0.6258
0.6253
0.6246
0.6236
0.6222
0.6202
0.6177
0.6145
0.6105
0.6056
0.5996
0.5925
0.5840
0.5742
0.5628
0.5498
0.5351
0.5185
0.5000
0.4797
0.4573
0.4331
0.4069
0.3789
0.3492
0.3179
0.2853
0.2515
0.2169
0.1818
0.1465
0.1115
0.0772
0.0439
0.0122
-0.0174
-0.0446
-0.0688
-0.0898
-0.1071
-0.1205
-0.1299
-0.1350
-0.1359
-0.1326
-0.1255
-0.1147
-0.1008
-0.0842
-0.0655
-0.0455
-0.0248
-0.0042
0.0155
0.0336
0.0494
0.0624
0.0721
0.0782
0.0804
0.0788
0.0736
0.0650
0.0536
0.0400
0.0249
0.0091
-0.0065
-0.0212
-0.0341
-0.0446
-0.0521
-0.0563
-0.0570
-0.0543
-0.0484
-0.0397
-0.0288
-0.0164
-0.0034
0.0093
0.0210
0.0310
0.0384
0.0430
0.0444
0.0426
0.0378
0.0305
0.0211
0.0104
-0.0007
-0.0115
-0.0210
-0.0287
-0.0210
-0.0114
-0.0005
0.0107
0.0215
0.0309
0.0382
0.0429
0.0444
0.0427
0.0377
0.0298
0.0195
0.0074
-0.0056
-0.0187
-0.0310
-0.0417
-0.0500
-0.0553
-0.0572
-0.0555
-0.0503
-0.0417
-0.0302
-0.0164
-0.0010
0.0151
0.0310
0.0459
0.0589
0.0693
0.0765
0.0801
0.0797
0.0753
0.0670
0.0550
0.0398
0.0220
0.0022
-0.0188
-0.0402
-0.0611
-0.0807
-0.0983
-0.1131
-0.1247
-0.1324
-0.1359
-0.1349
-0.1293
-0.1192
-0.1045
-0.0855
-0.0626
-0.0361
-0.0064
0.0260
0.0605
0.0966
0.1339
0.1718
0.2097
0.2474
0.2842
0.3200
0.3543
0.3868
0.4175
0.4460
0.4723
0.4964
0.5181
0.5375
0.5547
0.5697
0.5825
0.5934
0.6024
0.6097
0.6155
0.6198
0.6229
0.6249
0.6260
0.6263
0.6259
0.6250
0.6238
0.6222
0.6205
0.6187
0.6169
0.6152
0.6136
0.6123
0.6112
0.6104
0.6099
0.6097
0.6099
0.6104
0.6112
0.6123
0.6136
0.6152
0.6169
0.6187
0.6205
0.6222
0.6238
0.6250
0.6259
0.6263
0.6260
0.6249
0.6229
0.6198
0.6155
0.6097
0.6024
0.5934
0.5825
0.5697
0.5547
0.5375
0.5181
0.4964
0.4723
0.4460
0.4175
0.3868
0.3543
0.3200
0.2842
0.2474
0.2097
0.1718
0.1339
0.0966
0.0605
0.0260
-0.0064
-0.0361
-0.0626
-0.0855
-0.1045
-0.1192
-0.1293
-0.1349
-0.1359
-0.1324
-0.1247
-0.1131
-0.0983
-0.0807
-0.0611
-0.0402
-0.0188
0.0022
0.0220
0.0398
0.0550
0.0670
0.0753
0.0797
0.0801
0.0765
0.0693
0.0589
0.0459
0.0310
0.0151
-0.0010
-0.0164
-0.0302
-0.0417
-0.0503
-0.0555
-0.0572
-0.0553
-0.0500
-0.0417
-0.0310
-0.0187
-0.0056
0.0074
0.0195
0.0298
0.0377
0.0427
0.0444
0.0429
0.0382
0.0309
0.0215
0.0107
-0.0005
-0.0114
-0.0210
-0.0115
-0.0005
0.0109
0.0217
0.0312
0.0385
0.0430
0.0444
0.0424
0.0371
0.0289
0.0182
0.0058
-0.0074
-0.0207
-0.0329
-0.0434
-0.0513
-0.0560
-0.0571
-0.0546
-0.0484
-0.0388
-0.0264
-0.0118
0.0042
0.0206
0.0365
0.0511
0.0634
0.0728
0.0786
0.0804
0.0781
0.0715
0.0610
0.0469
0.0297
0.0101
-0.0111
-0.0330
-0.0548
-0.0754
-0.0942
-0.1103
-0.1229
-0.1315
-0.1357
-0.1351
-0.1296
-0.1190
-0.1036
-0.0835
-0.0590
-0.0306
0.0013
0.0361
0.0732
0.1120
0.1519
0.1924
0.2329
0.2728
0.3117
0.3492
0.3848
0.4184
0.4497
0.4784
0.5045
0.5278
0.5485
0.5664
0.5817
0.5945
0.6049
0.6130
0.6190
0.6231
0.6255
0.6263
0.6258
0.6241
0.6215
0.6181
0.6141
0.6096
0.6048
0.5998
0.5948
0.5898
0.5850
0.5805
0.5764
0.5726
0.5694
0.5666
0.5644
0.5629
0.5619
0.5616
0.5619
0.5629
0.5644
0.5666
0.5694
0.5726
0.5764
0.5805
0.5850
0.5898
0.5948
0.5998
0.6048
0.6096
0.6141
0.6181
0.6215
0.6241
0.6258
0.6263
0.6255
0.6231
0.6190
0.6130
0.6049
0.5945
0.5817
0.5664
0.5485
0.5278
0.5045
0.4784
0.4497
0.4184
0.3848
0.3492
0.3117
0.2728
0.2329
0.1924
0.1519
0.1120
0.0732
0.0361
0.0013
-0.0306
-0.0590
-0.0835
-0.1036
-0.1190
-0.1296
-0.1351
-0.1357
-0.1315
-0.1229
-0.1103
-0.0942
-0.0754
-0.0548
-0.0330
-0.0111
0.0101
0.0297
0.0469
0.0610
0.0715
0.0781
0.0804
0.0786
0.0728
0.0634
0.0511
0.0365
0.0206
0.0042
-0.0118
-0.0264
-0.0388
-0.0484
-0.0546
-0.0571
-0.0560
-0.0513
-0.0434
-0.0329
-0.0207
-0.0074
0.0058
0.0182
0.0289
0.0371
0.0424
0.0444
0.0430
0.0385
0.0312
0.0217
0.0109
-0.0005
-0.0115
-0.0007
0.0107
0.0217
0.0313
0.0386
0.0431
0.0444
0.0422
0.0367
0.0281
0.0172
0.0045
-0.0090
-0.0223
-0.0345
-0.0448
-0.0523
-0.0565
-0.0569
-0.0535
-0.0465
-0.0360
-0.0228
-0.0075
0.0090
0.0257
0.0415
0.0557
0.0672
0.0755
0.0798
0.0799
0.0756
0.0670
0.0544
0.0383
0.0193
-0.0018
-0.0241
-0.0466
-0.0683
-0.0884
-0.1059
-0.1199
-0.1299
-0.1352
-0.1355
-0.1305
-0.1202
-0.1045
-0.0837
-0.0581
-0.0283
0.0054
0.0422
0.0816
0.1229
0.1653
0.2082
0.2510
0.2931
0.3338
0.3729
0.4098
0.4442
0.4758
0.5045
0.5300
0.5524
0.5717
0.5878
0.6008
0.6110
0.6184
0.6233
0.6258
0.6262
0.6247
0.6215
0.6169
0.6110
0.6042
0.5966
0.5883
0.5797
0.5709
0.5619
0.5530
0.5444
0.5360
0.5281
0.5206
0.5138
0.5076
0.5021
0.4974
0.4935
0.4904
0.4882
0.4869
0.4864
0.4869
0.4882
0.4904
0.4935
0.4974
0.5021
0.5076
0.5138
0.5206
0.5281
0.5360
0.5444
0.5530
0.5619
0.5709
0.5797
0.5883
0.5966
0.6042
0.6110
0.6169
0.6215
0.6247
0.6262
0.6258
0.6233
0.6184
0.6110
0.6008
0.5878
0.5717
0.5524
0.5300
0.5045
0.4758
0.4442
0.4098
0.3729
0.3338
0.2931
0.2510
0.2082
0.1653
0.1229
0.0816
0.0422
0.0054
-0.0283
-0.0581
-0.0837
-0.1045
-0.1202
-0.1305
-0.1355
-0.1352
-0.1299
-0.1199
-0.1059
-0.0884
-0.0683
-0.0466
-0.0241
-0.0018
0.0193
0.0383
0.0544
0.0670
0.0756
0.0799
0.0798
0.0755
0.0672
0.0557
0.0415
0.0257
0.0090
-0.0075
-0.0228
-0.0360
-0.0465
-0.0535
-0.0569
-0.0565
-0.0523
-0.0448
-0.0345
-0.0223
-0.0090
0.0045
0.0172
0.0281
0.0367
0.0422
0.0444
0.0431
0.0386
0.0313
0.0217
0.0107
-0.0007
0.0104
0.0215
0.0312
0.0386
0.0432
0.0444
0.0421
0.0364
0.0276
0.0164
0.0035
-0.0102
-0.0236
-0.0359
-0.0459
-0.0531
-0.0568
-0.0566
-0.0525
-0.0446
-0.0334
-0.0194
-0.0035
0.0134
0.0302
0.0460
0.0596
0.0704
0.0775
0.0803
0.0788
0.0726
0.0620
0.0475
0.0295
0.0089
-0.0134
-0.0365
-0.0593
-0.0807
-0.0998
-0.1156
-0.1273
-0.1342
-0.1360
-0.1321
-0.1225
-0.1071
-0.0862
-0.0601
-0.0293
0.0058
0.0443
0.0857
0.1291
0.1738
0.2190
0.2640
0.3081
0.3507
0.3913
0.4293
0.4645
0.4964
0.5249
0.5498
0.5711
0.5887
0.6028
0.6134
0.6207
0.6249
0.6263
0.6250
0.6214
0.6157
0.6082
0.5992
0.5888
0.5775
0.5654
0.5527
0.5397
0.5265
0.5134
0.5004
0.4878
0.4756
0.4639
0.4530
0.4427
0.4332
0.4247
0.4170
0.4102
0.4045
0.3998
0.3961
0.3934
0.3918
0.3913
0.3918
0.3934
0.3961
0.3998
0.4045
0.4102
0.4170
0.4247
0.4332
0.4427
0.4530
0.4639
0.4756
0.4878
0.5004
0.5134
0.5265
0.5397
0.5527
0.5654
0.5775
0.5888
0.5992
0.6082
0.6157
0.6214
0.6250
0.6263
0.6249
0.6207
0.6134
0.6028
0.5887
0.5711
0.5498
0.5249
0.4964
0.4645
0.4293
0.3913
0.3507
0.3081
0.2640
0.2190
0.1738
0.1291
0.0857
0.0443
0.0058
-0.0293
-0.0601
-0.0862
-0.1071
-0.1225
-0.1321
-0.1360
-0.1342
-0.1273
-0.1156
-0.0998
-0.0807
-0.0593
-0.0365
-0.0134
0.0089
0.0295
0.0475
0.0620
0.0726
0.0788
0.0803
0.0775
0.0704
0.0596
0.0460
0.0302
0.0134
-0.0035
-0.0194
-0.0334
-0.0446
-0.0525
-0.0566
-0.0568
-0.0531
-0.0459
-0.0359
-0.0236
-0.0102
0.0035
0.0164
0.0276
0.0364
0.0421
0.0444
0.0432
0.0386
0.0312
0.0215
0.0104
0.0211
0.0309
0.0385
0.0431
0.0444
0.0420
0.0362
0.0273
0.0158
0.0027
-0.0111
-0.0247
-0.0369
-0.0468
-0.0537
-0.0570
-0.0563
-0.0515
-0.0429
-0.0309
-0.0163
0.0002
0.0174
0.0343
0.0499
0.0630
0.0729
0.0789
0.0803
0.0771
0.0691
0.0567
0.0403
0.0207
-0.0013
-0.0246
-0.0482
-0.0709
-0.0917
-0.1095
-0.1233
-0.1323
-0.1360
-0.1338
-0.1256
-0.1112
-0.0909
-0.0648
-0.0335
0.0024
0.0422
0.0852
0.1305
0.1773
0.2246
0.2718
0.3179
0.3623
0.4045
0.4437
0.4797
0.5120
0.5403
0.5646
0.5848
0.6008
0.6128
0.6209
0.6253
0.6262
0.6239
0.6188
0.6110
0.6010
0.5891
0.5755
0.5606
0.5447
0.5281
0.5109
0.4935
0.4760
0.4587
0.4417
0.4252
0.4092
0.3939
0.3795
0.3659
0.3532
0.3415
0.3308
0.3213
0.3127
0.3053
0.2991
0.2939
0.2899
0.2870
0.2853
0.2847
0.2853
0.2870
0.2899
0.2939
0.2991
0.3053
0.3127
0.3213
0.3308
0.3415
0.3532
0.3659
0.3795
0.3939
0.4092
0.4252
0.4417
0.4587
0.4760
0.4935
0.5109
0.5281
0.5447
0.5606
0.5755
0.5891
0.6010
0.6110
0.6188
0.6239
0.6262
0.6253
0.6209
0.6128
0.6008
0.5848
0.5646
0.5403
0.5120
0.4797
0.4437
0.4045
0.3623
0.3179
0.2718
0.2246
0.1773
0.1305
0.0852
0.0422
0.0024
-0.0335
-0.0648
-0.0909
-0.1112
-0.1256
-0.1338
-0.1360
-0.1323
-0.1233
-0.1095
-0.0917
-0.0709
-0.0482
-0.0246
-0.0013
0.0207
0.0403
0.0567
0.0691
0.0771
0.0803
0.0789
0.0729
0.0630
0.0499
0.0343
0.0174
0.0002
-0.0163
-0.0309
-0.0429
-0.0515
-0.0563
-0.0570
-0.0537
-0.0468
-0.0369
-0.0247
-0.0111
0.0027
0.0158
0.0273
0.0362
0.0420
0.0444
0.0431
0.0385
0.0309
0.0211
0.0305
0.0382
0.0430
0.0444
0.0421
0.0362
0.0272
0.0156
0.0023
-0.0118
-0.0254
-0.0376
-0.0475
-0.0542
-0.0571
-0.0559
-0.0506
-0.0413
-0.0287
-0.0135
0.0034
0.0209
0.0379
0.0532
0.0659
0.0749
0.0798
0.0798
0.0750
0.0653
0.0512
0.0332
0.0121
-0.0111
-0.0352
-0.0591
-0.0815
-0.1014
-0.1175
-0.1291
-0.1352
-0.1354
-0.1292
-0.1165
-0.0973
-0.0719
-0.0408
-0.0046
0.0361
0.0803
0.1272
0.1758
0.2251
0.2744
0.3225
0.3689
0.4127
0.4533
0.4902
0.5230
0.5515
0.5753
0.5945
0.6091
0.6191
0.6247
0.6263
0.6239
0.6181
0.6091
0.5972
0.5829
0.5666
0.5486
0.5292
0.5089
0.4878
0.4663
0.4447
0.4231
0.4019
0.3811
0.3609
0.3415
0.3229
0.3053
0.2888
0.2732
0.2588
0.2456
0.2335
0.2225
0.2128
0.2042
0.1967
0.1905
0.1853
0.1814
0.1785
0.1768
0.1763
0.1768
0.1785
0.1814
0.1853
0.1905
0.1967
0.2042
0.2128
0.2225
0.2335
0.2456
0.2588
0.2732
0.2888
0.3053
0.3229
0.3415
0.3609
0.3811
0.4019
0.4231
0.4447
0.4663
0.4878
0.5089
0.5292
0.5486
0.5666
0.5829
0.5972
0.6091
0.6181
0.6239
0.6263
0.6247
0.6191
0.6091
0.5945
0.5753
0.5515
0.5230
0.4902
0.4533
0.4127
0.3689
0.3225
0.2744
0.2251
0.1758
0.1272
0.0803
0.0361
-0.0046
-0.0408
-0.0719
-0.0973
-0.1165
-0.1292
-0.1354
-0.1352
-0.1291
-0.1175
-0.1014
-0.0815
-0.0591
-0.0352
-0.0111
0.0121
0.0332
0.0512
0.0653
0.0750
0.0798
0.0798
0.0749
0.0659
0.0532
0.0379
0.0209
0.0034
-0.0135
-0.0287
-0.0413
-0.0506
-0.0559
-0.0571
-0.0542
-0.0475
-0.0376
-0.0254
-0.0118
0.0023
0.0156
0.0272
0.0362
0.0421
0.0444
0.0430
0.0382
0.0305
0.0378
0.0429
0.0444
0.0422
0.0364
0.0273
0.0156
0.0021
-0.0121
-0.0258
-0.0382
-0.0480
-0.0545
-0.0572
-0.0556
-0.0498
-0.0400
-0.0268
-0.0111
0.0062
0.0240
0.0410
0.0561
0.0682
0.0765
0.0802
0.0790
0.0727
0.0614
0.0456
0.0261
0.0037
-0.0204
-0.0451
-0.0690
-0.0909
-0.1096
-0.1239
-0.1330
-0.1361
-0.1326
-0.1222
-0.1050
-0.0811
-0.0509
-0.0150
0.0260
0.0709
0.1191
0.1693
0.2205
0.2718
0.3220
0.3704
0.4160
0.4582
0.4964
0.5300
0.5588
0.5825
0.6010
0.6144
0.6227
0.6262
0.6250
0.6196
0.6104
0.5977
0.5819
0.5635
0.5429
0.5206
0.4970
0.4724
0.4471
0.4216
0.3961
0.3708
0.3460
0.3218
0.2985
0.2761
0.2548
0.2346
0.2156
0.1979
0.1814
0.1661
0.1521
0.1394
0.1279
0.1175
0.1084
0.1004
0.0936
0.0878
0.0832
0.0795
0.0770
0.0754
0.0749
0.0754
0.0770
0.0795
0.0832
0.0878
0.0936
0.1004
0.1084
0.1175
0.1279
0.1394
0.1521
0.1661
0.1814
0.1979
0.2156
0.2346
0.2548
0.2761
0.2985
0.3218
0.3460
0.3708
0.3961
0.4216
0.4471
0.4724
0.4970
0.5206
0.5429
0.5635
0.5819
0.5977
0.6104
0.6196
0.6250
0.6262
0.6227
0.6144
0.6010
0.5825
0.5588
0.5300
0.4964
0.4582
0.4160
0.3704
0.3220
0.2718
0.2205
0.1693
0.1191
0.0709
0.0260
-0.0150
-0.0509
-0.0811
-0.1050
-0.1222
-0.1326
-0.1361
-0.1330
-0.1239
-0.1096
-0.0909
-0.0690
-0.0451
-0.0204
0.0037
0.0261
0.0456
0.0614
0.0727
0.0790
0.0802
0.0765
0.0682
0.0561
0.0410
0.0240
0.0062
-0.0111
-0.0268
-0.0400
-0.0498
-0.0556
-0.0572
-0.0545
-0.0480
-0.0382
-0.0258
-0.0121
0.0021
0.0156
0.0273
0.0364
0.0422
0.0444
0.0429
0.0378
0.0426
0.0444
0.0424
0.0367
0.0276
0.0158
0.0023
-0.0121
-0.0260
-0.0384
-0.0483
-0.0547
-0.0572
-0.0553
-0.0491
-0.0389
-0.0252
-0.0090
0.0087
0.0266
0.0437
0.0585
0.0702
0.0777
0.0804
0.0779
0.0702
0.0574
0.0402
0.0193
-0.0042
-0.0292
-0.0542
-0.0780
-0.0992
-0.1165
-0.1288
-0.1353
-0.1351
-0.1279
-0.1134
-0.0917
-0.0632
-0.0283
0.0122
0.0575
0.1064
0.1578
0.2108
0.2640
0.3164
0.3669
0.4146
0.4587
0.4984
0.5333
0.5628
0.5868
0.6051
0.6176
0.6246
0.6262
0.6228
0.6146
0.6022
0.5861
0.5666
0.5444
0.5198
0.4935
0.4658
0.4372
0.4082
0.3789
0.3499
0.3213
0.2933
0.2663
0.2404
0.2156
0.1922
0.1701
0.1493
0.1300
0.1122
0.0957
0.0806
0.0668
0.0543
0.0431
0.0331
0.0242
0.0164
0.0097
0.0040
-0.0008
-0.0047
-0.0076
-0.0098
-0.0110
-0.0114
-0.0110
-0.0098
-0.0076
-0.0047
-0.0008
0.0040
0.0097
0.0164
0.0242
0.0331
0.0431
0.0543
0.0668
0.0806
0.0957
0.1122
0.1300
0.1493
0.1701
0.1922
0.2156
0.2404
0.2663
0.2933
0.3213
0.3499
0.3789
0.4082
0.4372
0.4658
0.4935
0.5198
0.5444
0.5666
0.5861
0.6022
0.6146
0.6228
0.6262
0.6246
0.6176
0.6051
0.5868
0.5628
0.5333
0.4984
0.4587
0.4146
0.3669
0.3164
0.2640
0.2108
0.1578
0.1064
0.0575
0.0122
-0.0283
-0.0632
-0.0917
-0.1134
-0.1279
-0.1351
-0.1353
-0.1288
-0.1165
-0.0992
-0.0780
-0.0542
-0.0292
-0.0042
0.0193
0.0402
0.0574
0.0702
0.0779
0.0804
0.0777
0.0702
0.0585
0.0437
0.0266
0.0087
-0.0090
-0.0252
-0.0389
-0.0491
-0.0553
-0.0572
-0.0547
-0.0483
-0.0384
-0.0260
-0.0121
0.0023
0.0158
0.0276
0.0367
0.0424
0.0444
0.0426
0.0444
0.0427
0.0371
0.0281
0.0164
0.0027
-0.0118
-0.0258
-0.0384
-0.0484
-0.0548
-0.0572
-0.0551
-0.0486
-0.0380
-0.0239
-0.0074
0.0106
0.0288
0.0459
0.0605
0.0717
0.0786
0.0803
0.0767
0.0677
0.0536
0.0350
0.0129
-0.0116
-0.0372
-0.0625
-0.0860
-0.1063
-0.1221
-0.1323
-0.1360
-0.1326
-0.1216
-0.1030
-0.0770
-0.0439
-0.0046
0.0402
0.0893
0.1417
0.1960
0.2510
0.3055
0.3583
0.4083
0.4546
0.4964
0.5329
0.5637
0.5885
0.6070
0.6193
0.6255
0.6257
0.6204
0.6099
0.5948
0.5755
0.5527
0.5269
0.4987
0.4686
0.4372
0.4050
0.3724
0.3398
0.3076
0.2761
0.2456
0.2162
0.1882
0.1616
0.1366
0.1132
0.0915
0.0714
0.0529
0.0359
0.0205
0.0066
-0.0060
-0.0172
-0.0272
-0.0361
-0.0439
-0.0507
-0.0566
-0.0616
-0.0659
-0.0694
-0.0722
-0.0743
-0.0758
-0.0767
-0.0770
-0.0767
-0.0758
-0.0743
-0.0722
-0.0694
-0.0659
-0.0616
-0.0566
-0.0507
-0.0439
-0.0361
-0.0272
-0.0172
-0.0060
0.0066
0.0205
0.0359
0.0529
0.0714
0.0915
0.1132
0.1366
0.1616
0.1882
0.2162
0.2456
0.2761
0.3076
0.3398
0.3724
0.4050
0.4372
0.4686
0.4987
0.5269
0.5527
0.5755
0.5948
0.6099
0.6204
0.6257
0.6255
0.6193
0.6070
0.5885
0.5637
0.5329
0.4964
0.4546
0.4083
0.3583
0.3055
0.2510
0.1960
0.1417
0.0893
0.0402
-0.0046
-0.0439
-0.0770
-0.1030
-0.1216
-0.1326
-0.1360
-0.1323
-0.1221
-0.1063
-0.0860
-0.0625
-0.0372
-0.0116
0.0129
0.0350
0.0536
0.0677
0.0767
0.0803
0.0786
0.0717
0.0605
0.0459
0.0288
0.0106
-0.0074
-0.0239
-0.0380
-0.0486
-0.0551
-0.0572
-0.0548
-0.0484
-0.0384
-0.0258
-0.0118
0.0027
0.0164
0.0281
0.0371
0.0427
0.0444
0.0430
0.0377
0.0289
0.0172
0.0035
-0.0111
-0.0254
-0.0382
-0.0483
-0.0548
-0.0572
-0.0550
-0.0483
-0.0374
-0.0230
-0.0061
0.0122
0.0305
0.0476
0.0622
0.0730
0.0792
0.0801
0.0754
0.0652
0.0499
0.0301
0.0069
-0.0184
-0.0446
-0.0699
-0.0930
-0.1123
-0.1265
-0.1346
-0.1355
-0.1288
-0.1141
-0.0915
-0.0612
-0.0239
0.0196
0.0683
0.1210
0.1763
0.2329
0.2894
0.3446
0.3972
0.4460
0.4902
0.5289
0.5616
0.5878
0.6072
0.6198
0.6258
0.6252
0.6186
0.6062
0.5888
0.5669
0.5411
0.5122
0.4806
0.4471
0.4123
0.3768
0.3409
0.3053
0.2704
0.2364
0.2036
0.1723
0.1427
0.1148
0.0889
0.0648
0.0426
0.0224
0.0040
-0.0127
-0.0276
-0.0410
-0.0528
-0.0633
-0.0725
-0.0805
-0.0874
-0.0934
-0.0986
-0.1029
-0.1066
-0.1097
-0.1122
-0.1142
-0.1158
-0.1170
-0.1178
-0.1183
-0.1185
-0.1183
-0.1178
-0.1170
-0.1158
-0.1142
-0.1122
-0.1097
-0.1066
-0.1029
-0.0986
-0.0934
-0.0874
-0.0805
-0.0725
-0.0633
-0.0528
-0.0410
-0.0276
-0.0127
0.0040
0.0224
0.0426
0.0648
0.0889
0.1148
0.1427
0.1723
0.2036
0.2364
0.2704
0.3053
0.3409
0.3768
0.4123
0.4471
0.4806
0.5122
0.5411
0.5669
0.5888
0.6062
0.6186
0.6252
0.6258
0.6198
0.6072
0.5878
0.5616
0.5289
0.4902
0.4460
0.3972
0.3446
0.2894
0.2329
0.1763
0.1210
0.0683
0.0196
-0.0239
-0.0612
-0.0915
-0.1141
-0.1288
-0.1355
-0.1346
-0.1265
-0.1123
-0.0930
-0.0699
-0.0446
-0.0184
0.0069
0.0301
0.0499
0.0652
0.0754
0.0801
0.0792
0.0730
0.0622
0.0476
0.0305
0.0122
-0.0061
-0.0230
-0.0374
-0.0483
-0.0550
-0.0572
-0.0548
-0.0483
-0.0382
-0.0254
-0.0111
0.0035
0.0172
0.0289
0.0377
0.0430
0.0384
0.0298
0.0182
0.0045
-0.0102
-0.0247
-0.0376
-0.0480
-0.0547
-0.0572
-0.0550
-0.0482
-0.0371
-0.0225
-0.0053
0.0133
0.0318
0.0490
0.0634
0.0739
0.0796
0.0798
0.0742
0.0630
0.0465
0.0256
0.0015
-0.0246
-0.0511
-0.0765
-0.0990
-0.1173
-0.1299
-0.1358
-0.1340
-0.1240
-0.1057
-0.0792
-0.0449
-0.0035
0.0439
0.0962
0.1519
0.2097
0.2681
0.3256
0.3809
0.4326
0.4797
0.5211
0.5563
0.5846
0.6056
0.6193
0.6257
0.6251
0.6177
0.6042
0.5850
0.5610
0.5326
0.5008
0.4663
0.4297
0.3918
0.3532
0.3144
0.2761
0.2387
0.2024
0.1678
0.1350
0.1041
0.0754
0.0489
0.0247
0.0027
-0.0172
-0.0350
-0.0507
-0.0646
-0.0767
-0.0872
-0.0962
-0.1038
-0.1103
-0.1156
-0.1201
-0.1237
-0.1266
-0.1289
-0.1307
-0.1321
-0.1332
-0.1339
-0.1345
-0.1349
-0.1352
-0.1353
-0.1354
-0.1355
-0.1354
-0.1353
-0.1352
-0.1349
-0.1345
-0.1339
-0.1332
-0.1321
-0.1307
-0.1289
-0.1266
-0.1237
-0.1201
-0.1156
-0.1103
-0.1038
-0.0962
-0.0872
-0.0767
-0.0646
-0.0507
-0.0350
-0.0172
0.0027
0.0247
0.0489
0.0754
0.1041
0.1350
0.1678
0.2024
0.2387
0.2761
0.3144
0.3532
0.3918
0.4297
0.4663
0.5008
0.5326
0.5610
0.5850
0.6042
0.6177
0.6251
0.6257
0.6193
0.6056
0.5846
0.5563
0.5211
0.4797
0.4326
0.3809
0.3256
0.2681
0.2097
0.1519
0.0962
0.0439
-0.0035
-0.0449
-0.0792
-0.1057
-0.1240
-0.1340
-0.1358
-0.1299
-0.1173
-0.0990
-0.0765
-0.0511
-0.0246
0.0015
0.0256
0.0465
0.0630
0.0742
0.0798
0.0796
0.0739
0.0634
0.0490
0.0318
0.0133
-0.0053
-0.0225
-0.0371
-0.0482
-0.0550
-0.0572
-0.0547
-0.0480
-0.0376
-0.0247
-0.0102
0.0045
0.0182
0.0298
0.0384
0.0310
0.0195
0.0058
-0.0090
-0.0236
-0.0369
-0.0475
-0.0545
-0.0572
-0.0551
-0.0483
-0.0371
-0.0223
-0.0048
0.0140
0.0327
0.0500
0.0643
0.0746
0.0799
0.0794
0.0731
0.0609
0.0435
0.0217
-0.0033
-0.0301
-0.0569
-0.0822
-0.1042
-0.1214
-0.1324
-0.1360
-0.1316
-0.1185
-0.0967
-0.0664
-0.0283
0.0169
0.0679
0.1233
0.1818
0.2417
0.3014
0.3593
0.4141
0.4645
0.5092
0.5475
0.5786
0.6020
0.6176
0.6253
0.6254
0.6181
0.6040
0.5837
0.5580
0.5277
0.4935
0.4563
0.4170
0.3762
0.3348
0.2933
0.2525
0.2128
0.1746
0.1383
0.1041
0.0724
0.0431
0.0164
-0.0076
-0.0292
-0.0482
-0.0649
-0.0793
-0.0917
-0.1020
-0.1107
-0.1177
-0.1233
-0.1276
-0.1309
-0.1332
-0.1348
-0.1357
-0.1360
-0.1360
-0.1356
-0.1350
-0.1343
-0.1335
-0.1327
-0.1320
-0.1313
-0.1307
-0.1303
-0.1301
-0.1300
-0.1301
-0.1303
-0.1307
-0.1313
-0.1320
-0.1327
-0.1335
-0.1343
-0.1350
-0.1356
-0.1360
-0.1360
-0.1357
-0.1348
-0.1332
-0.1309
-0.1276
-0.1233
-0.1177
-0.1107
-0.1020
-0.0917
-0.0793
-0.0649
-0.0482
-0.0292
-0.0076
0.0164
0.0431
0.0724
0.1041
0.1383
0.1746
0.2128
0.2525
0.2933
0.3348
0.3762
0.4170
0.4563
0.4935
0.5277
0.5580
0.5837
0.6040
0.6181
0.6254
0.6253
0.6176
0.6020
0.5786
0.5475
0.5092
0.4645
0.4141
0.3593
0.3014
0.2417
0.1818
0.1233
0.0679
0.0169
-0.0283
-0.0664
-0.0967
-0.1185
-0.1316
-0.1360
-0.1324
-0.1214
-0.1042
-0.0822
-0.0569
-0.0301
-0.0033
0.0217
0.0435
0.0609
0.0731
0.0794
0.0799
0.0746
0.0643
0.0500
0.0327
0.0140
-0.0048
-0.0223
-0.0371
-0.0483
-0.0551
-0.0572
-0.0545
-0.0475
-0.0369
-0.0236
-0.0090
0.0058
0.0195
0.0310
0.0210
0.0074
-0.0074
-0.0223
-0.0359
-0.0468
-0.0542
-0.0572
-0.0553
-0.0486
-0.0374
-0.0225
-0.0048
0.0142
0.0331
0.0505
0.0649
0.0751
0.0800
0.0791
0.0721
0.0592
0.0409
0.0182
-0.0076
-0.0348
-0.0619
-0.0871
-0.1086
-0.1247
-0.1341
-0.1356
-0.1286
-0.1125
-0.0873
-0.0535
-0.0118
0.0369
0.0911
0.1495
0.2102
0.2718
0.3323
0.3903
0.4442
0.4927
0.5347
0.5694
0.5960
0.6144
0.6243
0.6259
0.6195
0.6057
0.5850
0.5584
0.5265
0.4904
0.4510
0.4092
0.3659
0.3218
0.2779
0.2346
0.1927
0.1527
0.1148
0.0795
0.0470
0.0174
-0.0093
-0.0331
-0.0539
-0.0719
-0.0872
-0.1000
-0.1105
-0.1188
-0.1253
-0.1300
-0.1332
-0.1352
-0.1360
-0.1359
-0.1350
-0.1336
-0.1317
-0.1294
-0.1270
-0.1244
-0.1218
-0.1193
-0.1168
-0.1145
-0.1125
-0.1107
-0.1092
-0.1080
-0.1071
-0.1066
-0.1064
-0.1066
-0.1071
-0.1080
-0.1092
-0.1107
-0.1125
-0.1145
-0.1168
-0.1193
-0.1218
-0.1244
-0.1270
-0.1294
-0.1317
-0.1336
-0.1350
-0.1359
-0.1360
-0.1352
-0.1332
-0.1300
-0.1253
-0.1188
-0.1105
-0.1000
-0.0872
-0.0719
-0.0539
-0.0331
-0.0093
0.0174
0.0470
0.0795
0.1148
0.1527
0.1927
0.2346
0.2779
0.3218
0.3659
0.4092
0.4510
0.4904
0.5265
0.5584
0.5850
0.6057
0.6195
0.6259
0.6243
0.6144
0.5960
0.5694
0.5347
0.4927
0.4442
0.3903
0.3323
0.2718
0.2102
0.1495
0.0911
0.0369
-0.0118
-0.0535
-0.0873
-0.1125
-0.1286
-0.1356
-0.1341
-0.1247
-0.1086
-0.0871
-0.0619
-0.0348
-0.0076
0.0182
0.0409
0.0592
0.0721
0.0791
0.0800
0.0751
0.0649
0.0505
0.0331
0.0142
-0.0048
-0.0225
-0.0374
-0.0486
-0.0553
-0.0572
-0.0542
-0.0468
-0.0359
-0.0223
-0.0074
0.0074
0.0210
0.0093
-0.0056
-0.0207
-0.0345
-0.0459
-0.0537
-0.0571
-0.0556
-0.0491
-0.0380
-0.0230
-0.0053
0.0140
0.0331
0.0507
0.0652
0.0754
0.0801
0.0789
0.0713
0.0577
0.0387
0.0153
-0.0111
-0.0389
-0.0662
-0.0912
-0.1122
-0.1273
-0.1352
-0.1347
-0.1252
-0.1063
-0.0780
-0.0408
0.0043
0.0562
0.1134
0.1743
0.2370
0.2998
0.3608
0.4184
0.4710
0.5174
0.5563
0.5870
0.6091
0.6222
0.6263
0.6218
0.6091
0.5888
0.5619
0.5292
0.4918
0.4505
0.4066
0.3609
0.3145
0.2681
0.2225
0.1785
0.1366
0.0973
0.0608
0.0275
-0.0025
-0.0292
-0.0525
-0.0725
-0.0893
-0.1032
-0.1142
-0.1227
-0.1289
-0.1330
-0.1353
-0.1361
-0.1354
-0.1337
-0.1311
-0.1277
-0.1238
-0.1195
-0.1150
-0.1104
-0.1057
-0.1011
-0.0967
-0.0925
-0.0885
-0.0849
-0.0816
-0.0788
-0.0763
-0.0743
-0.0727
-0.0715
-0.0708
-0.0706
-0.0708
-0.0715
-0.0727
-0.0743
-0.0763
-0.0788
-0.0816
-0.0849
-0.0885
-0.0925
-0.0967
-0.1011
-0.1057
-0.1104
-0.1150
-0.1195
-0.1238
-0.1277
-0.1311
-0.1337
-0.1354
-0.1361
-0.1353
-0.1330
-0.1289
-0.1227
-0.1142
-0.1032
-0.0893
-0.0725
-0.0525
-0.0292
-0.0025
0.0275
0.0608
0.0973
0.1366
0.1785
0.2225
0.2681
0.3145
0.3609
0.4066
0.4505
0.4918
0.5292
0.5619
0.5888
0.6091
0.6218
0.6263
0.6222
0.6091
0.5870
0.5563
0.5174
0.4710
0.4184
0.3608
0.2998
0.2370
0.1743
0.1134
0.0562
0.0043
-0.0408
-0.0780
-0.1063
-0.1252
-0.1347
-0.1352
-0.1273
-0.1122
-0.0912
-0.0662
-0.0389
-0.0111
0.0153
0.0387
0.0577
0.0713
0.0789
0.0801
0.0754
0.0652
0.0507
0.0331
0.0140
-0.0053
-0.0230
-0.0380
-0.0491
-0.0556
-0.0571
-0.0537
-0.0459
-0.0345
-0.0207
-0.0056
0.0093
-0.0034
-0.0187
-0.0329
-0.0448
-0.0531
-0.0570
-0.0559
-0.0498
-0.0389
-0.0239
-0.0061
0.0133
0.0327
0.0505
0.0652
0.0755
0.0802
0.0787
0.0708
0.0567
0.0371
0.0130
-0.0140
-0.0422
-0.0697
-0.0947
-0.1151
-0.1293
-0.1358
-0.1335
-0.1216
-0.1000
-0.0688
-0.0286
0.0196
0.0745
0.1344
0.1975
0.2619
0.3256
0.3868
0.4437
0.4948
0.5386
0.5742
0.6008
0.6181
0.6258
0.6242
0.6136
0.5948
0.5685
0.5356
0.4974
0.4549
0.4092
0.3615
0.3127
0.2640
0.2162
0.1701
0.1262
0.0852
0.0475
0.0133
-0.0172
-0.0439
-0.0668
-0.0861
-0.1018
-0.1142
-0.1236
-0.1301
-0.1341
-0.1359
-0.1358
-0.1340
-0.1308
-0.1266
-0.1214
-0.1156
-0.1093
-0.1028
-0.0961
-0.0894
-0.0827
-0.0763
-0.0701
-0.0643
-0.0588
-0.0538
-0.0491
-0.0450
-0.0413
-0.0381
-0.0353
-0.0331
-0.0314
-0.0302
-0.0294
-0.0292
-0.0294
-0.0302
-0.0314
-0.0331
-0.0353
-0.0381
-0.0413
-0.0450
-0.0491
-0.0538
-0.0588
-0.0643
-0.0701
-0.0763
-0.0827
-0.0894
-0.0961
-0.1028
-0.1093
-0.1156
-0.1214
-0.1266
-0.1308
-0.1340
-0.1358
-0.1359
-0.1341
-0.1301
-0.1236
-0.1142
-0.1018
-0.0861
-0.0668
-0.0439
-0.0172
0.0133
0.0475
0.0852
0.1262
0.1701
0.2162
0.2640
0.3127
0.3615
0.4092
0.4549
0.4974
0.5356
0.5685
0.5948
0.6136
0.6242
0.6258
0.6181
0.6008
0.5742
0.5386
0.4948
0.4437
0.3868
0.3256
0.2619
0.1975
0.1344
0.0745
0.0196
-0.0286
-0.0688
-0.1000
-0.1216
-0.1335
-0.1358
-0.1293
-0.1151
-0.0947
-0.0697
-0.0422
-0.0140
0.0130
0.0371
0.0567
0.0708
0.0787
0.0802
0.0755
0.0652
0.0505
0.0327
0.0133
-0.0061
-0.0239
-0.0389
-0.0498
-0.0559
-0.0570
-0.0531
-0.0448
-0.0329
-0.0187
-0.0034
-0.0164
-0.0310
-0.0434
-0.0523
-0.0568
-0.0563
-0.0506
-0.0400
-0.0252
-0.0074
0.0122
0.0318
0.0500
0.0649
0.0754
0.0802
0.0786
0.0705
0.0561
0.0360
0.0114
-0.0161
-0.0447
-0.0725
-0.0974
-0.1174
-0.1308
-0.1360
-0.1320
-0.1181
-0.0940
-0.0601
-0.0170
0.0340
0.0916
0.1539
0.2190
0.2847
0.3492
0.4103
0.4662
0.5154
0.5566
0.5887
0.6112
0.6236
0.6260
0.6187
0.6022
0.5775
0.5454
0.5072
0.4639
0.4170
0.3675
0.3167
0.2658
0.2156
0.1672
0.1213
0.0785
0.0393
0.0040
-0.0272
-0.0542
-0.0770
-0.0957
-0.1105
-0.1216
-0.1293
-0.1340
-0.1359
-0.1355
-0.1331
-0.1289
-0.1233
-0.1167
-0.1092
-0.1011
-0.0927
-0.0840
-0.0754
-0.0669
-0.0586
-0.0506
-0.0430
-0.0358
-0.0292
-0.0230
-0.0173
-0.0122
-0.0076
-0.0035
0.0000
0.0031
0.0057
0.0077
0.0094
0.0105
0.0112
0.0114
0.0112
0.0105
0.0094
0.0077
0.0057
0.0031
0.0000
-0.0035
-0.0076
-0.0122
-0.0173
-0.0230
-0.0292
-0.0358
-0.0430
-0.0506
-0.0586
-0.0669
-0.0754
-0.0840
-0.0927
-0.1011
-0.1092
-0.1167
-0.1233
-0.1289
-0.1331
-0.1355
-0.1359
-0.1340
-0.1293
-0.1216
-0.1105
-0.0957
-0.0770
-0.0542
-0.0272
0.0040
0.0393
0.0785
0.1213
0.1672
0.2156
0.2658
0.3167
0.3675
0.4170
0.4639
0.5072
0.5454
0.5775
0.6022
0.6187
0.6260
0.6236
0.6112
0.5887
0.5566
0.5154
0.4662
0.4103
0.3492
0.2847
0.2190
0.1539
0.0916
0.0340
-0.0170
-0.0601
-0.0940
-0.1181
-0.1320
-0.1360
-0.1308
-0.1174
-0.0974
-0.0725
-0.0447
-0.0161
0.0114
0.0360
0.0561
0.0705
0.0786
0.0802
0.0754
0.0649
0.0500
0.0318
0.0122
-0.0074
-0.0252
-0.0400
-0.0506
-0.0563
-0.0568
-0.0523
-0.0434
-0.0310
-0.0164
-0.0288
-0.0417
-0.0513
-0.0565
-0.0566
-0.0515
-0.0413
-0.0268
-0.0090
0.0106
0.0305
0.0490
0.0643
0.0751
0.0801
0.0787
0.0705
0.0559
0.0354
0.0104
-0.0175
-0.0466
-0.0746
-0.0995
-0.1192
-0.1319
-0.1360
-0.1305
-0.1147
-0.0885
-0.0521
-0.0064
0.0473
0.1073
0.1718
0.2386
0.3055
0.3704
0.4312
0.4860
0.5333
0.5717
0.6002
0.6184
0.6260
0.6232
0.6104
0.5883
0.5580
0.5206
0.4774
0.4297
0.3789
0.3263
0.2732
0.2208
0.1701
0.1219
0.0770
0.0359
-0.0008
-0.0331
-0.0606
-0.0836
-0.1020
-0.1162
-0.1262
-0.1326
-0.1357
-0.1358
-0.1333
-0.1287
-0.1223
-0.1145
-0.1057
-0.0961
-0.0860
-0.0756
-0.0652
-0.0550
-0.0450
-0.0353
-0.0262
-0.0176
-0.0095
-0.0021
0.0047
0.0110
0.0166
0.0216
0.0261
0.0300
0.0335
0.0364
0.0389
0.0410
0.0426
0.0439
0.0448
0.0453
0.0455
0.0453
0.0448
0.0439
0.0426
0.0410
0.0389
0.0364
0.0335
0.0300
0.0261
0.0216
0.0166
0.0110
0.0047
-0.0021
-0.0095
-0.0176
-0.0262
-0.0353
-0.0450
-0.0550
-0.0652
-0.0756
-0.0860
-0.0961
-0.1057
-0.1145
-0.1223
-0.1287
-0.1333
-0.1358