# vtk DataFile Version 3.0
Polydata + Polygons Example B with Cell Data
ASCII

DATASET POLYDATA
POINTS 6 float
0.0 0.0 0.0
0.0 1.0 0.0
1.0 1.0 0.0
1.0 0.0 0.0
0.0 0.0 1.0
0.0 1.0 1.0

POLYGONS 2 10
4 0 1 2 3
4 0 4 5 1

CELL_DATA 2
SCALARS cell_scalars int 1
LOOKUP_TABLE default
1
2