# vtk DataFile Version 2.0
Cube example
ASCII
DATASET POLYDATA
POINTS 7 float
0.0 0.0 0.0
0.0 1.0 0.0
1.0 1.0 0.0
1.0 0.0 0.0
0.0 0.0 1.0
0.0 1.0 1.0
1.0 0.0 1.0

POLYGONS 3 15
4 0 1 2 3
4 0 4 5 1
4 0 3 6 4

POINT_DATA 7
SCALARS Point_number float 1
LOOKUP_TABLE my_table
0.0
1.0
2.0
3.0
4.0
5.0
6.0