# vtk DataFile Version 3.0
vtk output
ASCII
DATASET POLYDATA

POINTS 4 float
0 0 0
1 0 0
0 1 0
1 0 1

LINES 5 15
2 0 1
2 1 3
2 3 2
2 2 0
2 0 3

CELL_DATA 5
scalars line_number float
LOOKUP_TABLE default
0 1 2 3 4

POINT_DATA 4
scalars point_number float
LOOKUP_TABLE default
0 1 2 3