# vtk DataFile Version 2.0
Cube example
ASCII
DATASET POLYDATA
POINTS 4 float
0.0 0.0 0.0
0.0 1.0 0.0
1.0 1.0 0.0
1.0 0.0 0.0

POINT_DATA 4
SCALARS point_number float 1
LOOKUP_TABLE my_table
0.0
1.0
2.0
3.0