# vtk DataFile Version 2.0
Cube example
ASCII
DATASET POLYDATA
POINTS 4 float
0.0 0.0 0.0
0.0 1.0 0.0
1.0 1.0 0.0
1.0 0.0 0.0

POLYGONS 1 5
4 0 1 2 3

POINT_DATA 4
SCALARS x_value float 1
LOOKUP_TABLE my_table
0.0
0.0
1.0
1.0
