# vtk DataFile Version 2.0
Cube with polygons
ASCII
DATASET POLYDATA
POINTS 6 float
0.0 0.0 0.0
0.0 1.0 0.0
1.0 1.0 0.0
1.0 0.0 0.0
0.0 0.0 1.0
0.0 1.0 1.0

POLYGONS 2 10
4 0 1 2 3
4 0 4 5 1

CELL_DATA 2
scalars polygon_number float
LOOKUP_TABLE default
0 1