# vtk DataFile Version 3.0
vtk output
ASCII
DATASET POLYDATA

POINTS 3 float
1.0 0.5 1.5
0.2 0.1 0.8
0.4 0.2 2.3

VERTICES 3 6
1 0
1 1
1 2

CELL_DATA 3
scalars vertex_number float
LOOKUP_TABLE default
0 1 2
