# vtk DataFile Version 3.0
Dipole Field
ASCII
DATASET STRUCTURED_POINTS
DIMENSIONS 3 3 3
ORIGIN -1.0 -1.0 -1.0
SPACING 1.0 1.0 1.0
POINT_DATA 27
VECTORS dataName float
