# vtk DataFile Version 3.0
Dipole Field
ASCII
DATASET STRUCTURED_POINTS
DIMENSIONS 3 3 3
ORIGIN -1.000000 -1.000000 -1.000000
SPACING 1.0 1.0 1.0
POINT_DATA 27
VECTORS MagneticField float
-1.000000 -1.000000 -1.000000
0.000000 -1.000000 -1.000000
1.000000 -1.000000 -1.000000
-1.000000 0.000000 -1.000000
0.000000 0.000000 -1.000000
1.000000 0.000000 -1.000000
-1.000000 1.000000 -1.000000
0.000000 1.000000 -1.000000
1.000000 1.000000 -1.000000
-1.000000 -1.000000 0.000000
0.000000 -1.000000 0.000000
1.000000 -1.000000 0.000000
-1.000000 0.000000 0.000000
0.000000 0.000000 0.000000
1.000000 0.000000 0.000000
-1.000000 1.000000 0.000000
0.000000 1.000000 0.000000
1.000000 1.000000 0.000000
-1.000000 -1.000000 1.000000
0.000000 -1.000000 1.000000
1.000000 -1.000000 1.000000
-1.000000 0.000000 1.000000
0.000000 0.000000 1.000000
1.000000 0.000000 1.000000
-1.000000 1.000000 1.000000
0.000000 1.000000 1.000000
1.000000 1.000000 1.000000
