# vtk DataFile Version 3.0
Dataset attribute example
ASCII
DATASET STRUCTURED_GRID
DIMENSIONS 2 2 1
POINTS 4 float
0 0 0
1 0 0
0 1 0
1 1 0

POINT_DATA 4
VECTORS point_vectors float
1.0 0.0 0.0
0.0 1.0 0.0
0.0 0.0 1.0
1.0 1.0 1.0

