# vtk DataFile Version 3.0
Structured Points Example B
ASCII

DATASET STRUCTURED_POINTS
DIMENSIONS 2 2 2
ORIGIN 0.0 0.0 0.0
SPACING 1.0 1.0 1.0

POINT_DATA 8
SCALARS point_scalars int 1
LOOKUP_TABLE default
0
1
2
3
4
5
6
7
