# vtk DataFile Version 2.0
Function: y = Sin(x)
ASCII

DATASET STRUCTURED_POINTS
DIMENSIONS 101 1 1
ORIGIN 0.0 0.0 0.0
SPACING 0.05 0.1 0.1

POINT_DATA 101

SCALARS Sin(x) float
LOOKUP_TABLE default

 0.000000
 0.479425
 0.841470
 0.997494
 0.909297
 0.598472
 0.141120
-0.350783
-0.756802
-0.977530
-0.958924
-0.705540
-0.279415
 0.215119
 0.656986
 0.937999
 0.989358
 0.798487
 0.412118
-0.075151
-0.544021
-0.879695
-0.999990
-0.875452
-0.536572
-0.066321
 0.420167
 0.803784
 0.990607
 0.934895
 0.650287
 0.206467
-0.287903
-0.711785
-0.961397
-0.975626
-0.750987
-0.342480
 0.149877
 0.605539
 0.912945
 0.996829
 0.836655
 0.471639
-0.008851
-0.487174
-0.846220
-0.998082
-0.905578
-0.591357
-0.132351
 0.359058
 0.762558
 0.979357
 0.956375
 0.699240
 0.270905
-0.223755
-0.663633
-0.941031
-0.988031
-0.793127
-0.404037
 0.083974
 0.551426
 0.883870
 0.999911
 0.871140
 0.529082
 0.057487
-0.428182
-0.809018
-0.991778
-0.931716
-0.643538
-0.197798
 0.296368
 0.717974
 0.963795
 0.973645
 0.745113
 0.334151
-0.158622
-0.612560
-0.916521
-0.996086
-0.831774
-0.463815
 0.017701
 0.494885
 0.850903
 0.998590
 0.901788
 0.584196
 0.123573
-0.367305
-0.768254
-0.981108
-0.953752
-0.692884
-0.262374
