# vtk DataFile Version 2.0
Function: y = Sinc(x) = Sin(x)/x
ASCII

DATASET STRUCTURED_POINTS
DIMENSIONS 101 1 1
ORIGIN 0.0 0.0 0.0
SPACING 0.05 0.1 0.1

POINT_DATA 101

SCALARS Sinc(x) float
LOOKUP_TABLE default

 1.000000
 0.958851
 0.841470
 0.664996
 0.454648
 0.239388
 0.047040
-0.100223
-0.189200
-0.217228
-0.191784
-0.128280
-0.046569
 0.033095
 0.093855
 0.125066
 0.123669
 0.093939
 0.045790
-0.007910
-0.054402
-0.083780
-0.090908
-0.076126
-0.044714
-0.005305
 0.032320
 0.059539
 0.070757
 0.064475
 0.043352
 0.013320
-0.017993
-0.043138
-0.056552
-0.055750
-0.041721
-0.018512
 0.007888
 0.031053
 0.045647
 0.048625
 0.039840
 0.021936
-0.000402
-0.021652
-0.036792
-0.042471
-0.037732
-0.024137
-0.005294
 0.014080
 0.029329
 0.036956
 0.035421
 0.025426
 0.009675
-0.007851
-0.022883
-0.031899
-0.032934
-0.026004
-0.013033
 0.002665
 0.017232
 0.027196
 0.030300
 0.026004
 0.015561
 0.001666
-0.012233
-0.022789
-0.027549
-0.025526
-0.017392
-0.005274
 0.007799
 0.018648
 0.024712
 0.024649
 0.018627
 0.008250
-0.003868
-0.014760
-0.021821
-0.023437
-0.019343
-0.010662
 0.000402
 0.011121
 0.018908
 0.021947
 0.019604
 0.012563
 0.002629
-0.007732
-0.016005
-0.020229
-0.019464
-0.013997
-0.005247

